9376
Atoms. Timestep: 4000000
1 7.5 3.55271e-15 10.5352
1 8.2937 29.2063 10.5352
1 8.32358 29.9217 9.69727
1 7.53672 29.1469 9.71534
1 9.0874 3.55271e-15 10.5352
1 9.8811 29.2063 10.5352
1 9.89591 29.9244 9.71094
1 9.11084 29.1813 9.73731
1 10.6748 3.55271e-15 10.5352
1 11.4685 29.2063 10.5352
1 11.4758 29.9549 9.72256
1 10.6954 29.1951 9.72774
1 12.2622 3.55271e-15 10.5352
1 13.0559 29.2063 10.5352
1 13.0621 29.9063 9.71144
1 12.2731 29.2033 9.74982
1 13.8496 3.55271e-15 10.5352
1 14.6433 29.2063 10.5352
1 14.6755 29.9296 9.70237
1 13.8468 29.1804 9.73019
1 15.437 3.55271e-15 10.5352
1 16.2307 29.2063 10.5352
1 16.2491 29.9133 9.6872
1 15.4343 29.1668 9.71436
1 17.0244 3.55271e-15 10.5352
1 17.8181 29.2063 10.5352
1 17.7815 29.9125 9.70209
1 17.0301 29.1474 9.74127
1 18.6118 3.55271e-15 10.5352
1 19.4055 29.2063 10.5352
1 19.4065 29.9405 9.71994
1 18.5973 29.1721 9.73753
1 20.1992 3.55271e-15 10.5352
1 20.9929 29.2063 10.5352
1 21.0017 29.9431 9.70554
1 20.2065 29.1676 9.75165
1 21.7866 3.55271e-15 10.5352
1 22.5803 29.2063 10.5352
1 22.5772 29.8926 9.72377
1 21.7772 29.1473 9.7344
1 23.374 3.55271e-15 10.5352
1 24.1677 29.2063 10.5352
1 24.1744 29.9241 9.72043
1 23.3836 29.1635 9.74372
1 24.9614 3.55271e-15 10.5352
1 25.7551 29.2063 10.5352
1 25.7278 29.9385 9.71282
1 24.9495 29.175 9.73709
1 26.5488 3.55271e-15 10.5352
1 27.3425 29.2063 10.5352
1 27.3401 29.9099 9.69276
1 26.5196 29.1592 9.75408
1 28.1362 3.55271e-15 10.5352
1 28.9299 29.2063 10.5352
1 28.9367 29.9597 9.68459
1 28.131 29.1738 9.73565
1 29.7236 3.55271e-15 10.5352
1 0.517315 29.2063 10.5352
1 0.509884 29.9484 9.6997
1 29.7167 29.2075 9.74053
1 1.31102 3.55271e-15 10.5352
1 2.10472 29.2063 10.5352
1 2.10013 29.9339 9.73677
1 1.29088 29.2314 9.74958
1 2.89842 3.55271e-15 10.5352
1 3.69212 29.2063 10.5352
1 3.68762 29.9146 9.70913
1 2.89422 29.1574 9.74811
1 4.48582 3.55271e-15 10.5352
1 5.27952 29.2063 10.5352
1 5.2325 29.9266 9.70883
1 4.47934 29.1733 9.72352
1 6.07322 3.55271e-15 10.5352
1 6.86692 29.2063 10.5352
1 6.78689 29.9271 9.70076
1 6.05573 29.1834 9.72581
1 7.5 28.4126 10.5352
1 8.2937 27.6189 10.5352
1 8.30805 28.4001 9.73976
1 7.5637 27.595 9.70944
1 9.0874 28.4126 10.5352
1 9.8811 27.6189 10.5352
1 9.89919 28.4077 9.71755
1 9.11143 27.5821 9.72544
1 10.6748 28.4126 10.5352
1 11.4685 27.6189 10.5352
1 11.4883 28.374 9.75785
1 10.6695 27.6055 9.74248
1 12.2622 28.4126 10.5352
1 13.0559 27.6189 10.5352
1 13.0684 28.4141 9.73057
1 12.272 27.5711 9.75219
1 13.8496 28.4126 10.5352
1 14.6433 27.6189 10.5352
1 14.651 28.3811 9.75766
1 13.8636 27.5974 9.71696
1 15.437 28.4126 10.5352
1 16.2307 27.6189 10.5352
1 16.2186 28.3986 9.75192
1 15.4393 27.616 9.73257
1 17.0244 28.4126 10.5352
1 17.8181 27.6189 10.5352
1 17.8011 28.3924 9.73157
1 17.0098 27.5869 9.73718
1 18.6118 28.4126 10.5352
1 19.4055 27.6189 10.5352
1 19.3769 28.4052 9.71916
1 18.6112 27.5914 9.71488
1 20.1992 28.4126 10.5352
1 20.9929 27.6189 10.5352
1 20.988 28.3739 9.74494
1 20.1927 27.5771 9.73455
1 21.7866 28.4126 10.5352
1 22.5803 27.6189 10.5352
1 22.5999 28.3878 9.74232
1 21.7897 27.6064 9.72569
1 23.374 28.4126 10.5352
1 24.1677 27.6189 10.5352
1 24.1855 28.3969 9.75367
1 23.3818 27.6089 9.76775
1 24.9614 28.4126 10.5352
1 25.7551 27.6189 10.5352
1 25.7502 28.3877 9.7575
1 24.9768 27.6154 9.74496
1 26.5488 28.4126 10.5352
1 27.3425 27.6189 10.5352
1 27.3403 28.4004 9.74182
1 26.5625 27.6225 9.73382
1 28.1362 28.4126 10.5352
1 28.9299 27.6189 10.5352
1 28.9354 28.4188 9.73455
1 28.1323 27.6272 9.75356
1 29.7236 28.4126 10.5352
1 0.517315 27.6189 10.5352
1 0.521966 28.4167 9.73342
1 29.7409 27.6046 9.73438
1 1.31102 28.4126 10.5352
1 2.10472 27.6189 10.5352
1 2.10514 28.393 9.75704
1 1.29531 27.6056 9.75822
1 2.89842 28.4126 10.5352
1 3.69212 27.6189 10.5352
1 3.68744 28.3765 9.74113
1 2.89795 27.6053 9.75343
1 4.48582 28.4126 10.5352
1 5.27952 27.6189 10.5352
1 5.26503 28.4111 9.74053
1 4.45846 27.5908 9.72225
1 6.07322 28.4126 10.5352
1 6.86692 27.6189 10.5352
1 6.76926 28.3818 9.69425
1 6.01998 27.6134 9.70139
1 7.5 26.8252 10.5352
1 8.2937 26.0315 10.5352
1 8.32818 26.8289 9.74877
1 7.54892 26.0432 9.70802
1 9.0874 26.8252 10.5352
1 9.8811 26.0315 10.5352
1 9.88882 26.8167 9.7574
1 9.08083 26.0189 9.7497
1 10.6748 26.8252 10.5352
1 11.4685 26.0315 10.5352
1 11.4702 26.8129 9.75354
1 10.6859 26.0189 9.7366
1 12.2622 26.8252 10.5352
1 13.0559 26.0315 10.5352
1 13.0638 26.8027 9.76176
1 12.2546 25.9976 9.74897
1 13.8496 26.8252 10.5352
1 14.6433 26.0315 10.5352
1 14.6445 26.8182 9.72081
1 13.8411 26.0348 9.72438
1 15.437 26.8252 10.5352
1 16.2307 26.0315 10.5352
1 16.2217 26.8042 9.74705
1 15.436 26.0326 9.72644
1 17.0244 26.8252 10.5352
1 17.8181 26.0315 10.5352
1 17.818 26.8174 9.73847
1 17.0248 25.9979 9.73821
1 18.6118 26.8252 10.5352
1 19.4055 26.0315 10.5352
1 19.3734 26.8055 9.73811
1 18.6157 25.9941 9.7334
1 20.1992 26.8252 10.5352
1 20.9929 26.0315 10.5352
1 20.9988 26.8152 9.72661
1 20.2031 26.0278 9.75606
1 21.7866 26.8252 10.5352
1 22.5803 26.0315 10.5352
1 22.5797 26.8096 9.73906
1 21.7843 26.0182 9.7504
1 23.374 26.8252 10.5352
1 24.1677 26.0315 10.5352
1 24.1774 26.8465 9.73452
1 23.3946 26.0528 9.71798
1 24.9614 26.8252 10.5352
1 25.7551 26.0315 10.5352
1 25.7721 26.8034 9.72441
1 24.9727 26.0455 9.7611
1 26.5488 26.8252 10.5352
1 27.3425 26.0315 10.5352
1 27.3479 26.8005 9.73987
1 26.5651 26.0207 9.73257
1 28.1362 26.8252 10.5352
1 28.9299 26.0315 10.5352
1 28.9304 26.8184 9.73753
1 28.1459 26.0331 9.74925
1 29.7236 26.8252 10.5352
1 0.517315 26.0315 10.5352
1 0.506049 26.8241 9.75707
1 29.7281 26.0326 9.71818
1 1.31102 26.8252 10.5352
1 2.10472 26.0315 10.5352
1 2.06991 26.8323 9.74579
1 1.32005 26.0378 9.73923
1 2.89842 26.8252 10.5352
1 3.69212 26.0315 10.5352
1 3.66936 26.8098 9.73352
1 2.87482 26.0462 9.73796
1 4.48582 26.8252 10.5352
1 5.27952 26.0315 10.5352
1 5.25473 26.827 9.71789
1 4.48317 26.0303 9.74252
1 6.07322 26.8252 10.5352
1 6.86692 26.0315 10.5352
1 6.77108 26.8149 9.69944
1 6.04828 26.0383 9.72427
1 7.5 25.2378 10.5352
1 8.2937 24.4441 10.5352
1 8.29915 25.2422 9.74649
1 7.57095 24.457 9.68061
1 9.0874 25.2378 10.5352
1 9.8811 24.4441 10.5352
1 9.89848 25.217 9.73419
1 9.08503 24.4237 9.74371
1 10.6748 25.2378 10.5352
1 11.4685 24.4441 10.5352
1 11.4733 25.2335 9.7632
1 10.6922 24.4274 9.72668
1 12.2622 25.2378 10.5352
1 13.0559 24.4441 10.5352
1 13.0753 25.2364 9.7405
1 12.2756 24.443 9.72787
1 13.8496 25.2378 10.5352
1 14.6433 24.4441 10.5352
1 14.6377 25.243 9.73766
1 13.8479 24.4388 9.72437
1 15.437 25.2378 10.5352
1 16.2307 24.4441 10.5352
1 16.2389 25.2244 9.73397
1 15.4366 24.4498 9.74589
1 17.0244 25.2378 10.5352
1 17.8181 24.4441 10.5352
1 17.8116 25.2116 9.7308
1 17.033 24.4231 9.72621
1 18.6118 25.2378 10.5352
1 19.4055 24.4441 10.5352
1 19.4103 25.237 9.72695
1 18.6406 24.4337 9.72962
1 20.1992 25.2378 10.5352
1 20.9929 24.4441 10.5352
1 21.0022 25.2266 9.74707
1 20.2099 24.4259 9.75918
1 21.7866 25.2378 10.5352
1 22.5803 24.4441 10.5352
1 22.5925 25.2328 9.7534
1 21.7776 24.4362 9.746
1 23.374 25.2378 10.5352
1 24.1677 24.4441 10.5352
1 24.1855 25.2331 9.74716
1 23.3876 24.4217 9.76315
1 24.9614 25.2378 10.5352
1 25.7551 24.4441 10.5352
1 25.7648 25.2628 9.75665
1 24.989 24.4317 9.74504
1 26.5488 25.2378 10.5352
1 27.3425 24.4441 10.5352
1 27.354 25.219 9.733
1 26.5409 24.4613 9.75484
1 28.1362 25.2378 10.5352
1 28.9299 24.4441 10.5352
1 28.9382 25.2221 9.72034
1 28.1325 24.4346 9.74365
1 29.7236 25.2378 10.5352
1 0.517315 24.4441 10.5352
1 0.5083 25.2457 9.76759
1 29.7459 24.4238 9.76217
1 1.31102 25.2378 10.5352
1 2.10472 24.4441 10.5352
1 2.06934 25.2176 9.73976
1 1.31271 24.4284 9.73493
1 2.89842 25.2378 10.5352
1 3.69212 24.4441 10.5352
1 3.67848 25.2561 9.75849
1 2.88807 24.4426 9.72421
1 4.48582 25.2378 10.5352
1 5.27952 24.4441 10.5352
1 5.28903 25.2371 9.73712
1 4.46771 24.4442 9.73415
1 6.07322 25.2378 10.5352
1 6.86692 24.4441 10.5352
1 6.80449 25.2567 9.69577
1 6.06976 24.4645 9.73222
1 7.5 23.6504 10.5352
1 8.2937 22.8567 10.5352
1 8.29381 23.6256 9.72303
1 7.58361 22.847 9.7175
1 9.0874 23.6504 10.5352
1 9.8811 22.8567 10.5352
1 9.88039 23.6545 9.73016
1 9.11188 22.8234 9.75075
1 10.6748 23.6504 10.5352
1 11.4685 22.8567 10.5352
1 11.4741 23.6415 9.73022
1 10.6704 22.8767 9.74384
1 12.2622 23.6504 10.5352
1 13.0559 22.8567 10.5352
1 13.0512 23.6556 9.73796
1 12.2905 22.8625 9.72981
1 13.8496 23.6504 10.5352
1 14.6433 22.8567 10.5352
1 14.6499 23.6683 9.74246
1 13.872 22.861 9.74898
1 15.437 23.6504 10.5352
1 16.2307 22.8567 10.5352
1 16.2191 23.6552 9.74781
1 15.429 22.8518 9.75359
1 17.0244 23.6504 10.5352
1 17.8181 22.8567 10.5352
1 17.8467 23.6486 9.75801
1 17.0282 22.8886 9.76385
1 18.6118 23.6504 10.5352
1 19.4055 22.8567 10.5352
1 19.4209 23.6349 9.74138
1 18.6207 22.8561 9.73029
1 20.1992 23.6504 10.5352
1 20.9929 22.8567 10.5352
1 20.9835 23.6249 9.73636
1 20.1943 22.8481 9.75237
1 21.7866 23.6504 10.5352
1 22.5803 22.8567 10.5352
1 22.5771 23.6743 9.73008
1 21.7648 22.873 9.74514
1 23.374 23.6504 10.5352
1 24.1677 22.8567 10.5352
1 24.1824 23.6205 9.74029
1 23.3627 22.812 9.75308
1 24.9614 23.6504 10.5352
1 25.7551 22.8567 10.5352
1 25.7663 23.6588 9.73779
1 24.9753 22.8305 9.74761
1 26.5488 23.6504 10.5352
1 27.3425 22.8567 10.5352
1 27.3342 23.6652 9.73979
1 26.5448 22.838 9.74285
1 28.1362 23.6504 10.5352
1 28.9299 22.8567 10.5352
1 28.9553 23.6474 9.75462
1 28.1074 22.8809 9.74115
1 29.7236 23.6504 10.5352
1 0.517315 22.8567 10.5352
1 0.537246 23.6502 9.73227
1 29.7136 22.8298 9.74335
1 1.31102 23.6504 10.5352
1 2.10472 22.8567 10.5352
1 2.09709 23.6397 9.7472
1 1.31503 22.8499 9.7466
1 2.89842 23.6504 10.5352
1 3.69212 22.8567 10.5352
1 3.66872 23.6548 9.71657
1 2.88301 22.868 9.76347
1 4.48582 23.6504 10.5352
1 5.27952 22.8567 10.5352
1 5.27601 23.6646 9.74174
1 4.46482 22.8546 9.73712
1 6.07322 23.6504 10.5352
1 6.86692 22.8567 10.5352
1 6.81077 23.6527 9.70161
1 6.04369 22.8442 9.75354
1 7.5 22.063 10.5352
1 8.2937 21.2693 10.5352
1 8.31233 22.0536 9.72961
1 7.58075 21.2517 9.68753
1 9.0874 22.063 10.5352
1 9.8811 21.2693 10.5352
1 9.89127 22.049 9.74571
1 9.09598 21.2599 9.72034
1 10.6748 22.063 10.5352
1 11.4685 21.2693 10.5352
1 11.4733 22.0501 9.73841
1 10.7057 21.2795 9.74461
1 12.2622 22.063 10.5352
1 13.0559 21.2693 10.5352
1 13.0785 22.0638 9.73707
1 12.2923 21.2487 9.74633
1 13.8496 22.063 10.5352
1 14.6433 21.2693 10.5352
1 14.6535 22.0467 9.74801
1 13.8606 21.2727 9.75052
1 15.437 22.063 10.5352
1 16.2307 21.2693 10.5352
1 16.2541 22.0589 9.75849
1 15.4507 21.2673 9.75662
1 17.0244 22.063 10.5352
1 17.8181 21.2693 10.5352
1 17.8313 22.069 9.74307
1 17.0153 21.2668 9.75225
1 18.6118 22.063 10.5352
1 19.4055 21.2693 10.5352
1 19.4176 22.05 9.72273
1 18.6117 21.2449 9.78418
1 20.1992 22.063 10.5352
1 20.9929 21.2693 10.5352
1 20.9936 22.095 9.73515
1 20.2228 21.2618 9.74584
1 21.7866 22.063 10.5352
1 22.5803 21.2693 10.5352
1 22.568 22.0682 9.75486
1 21.7899 21.2468 9.74716
1 23.374 22.063 10.5352
1 24.1677 21.2693 10.5352
1 24.1723 22.0669 9.73435
1 23.3931 21.2831 9.7613
1 24.9614 22.063 10.5352
1 25.7551 21.2693 10.5352
1 25.7708 22.0472 9.73165
1 24.9846 21.2851 9.74203
1 26.5488 22.063 10.5352
1 27.3425 21.2693 10.5352
1 27.336 22.0591 9.72409
1 26.5656 21.2678 9.71858
1 28.1362 22.063 10.5352
1 28.9299 21.2693 10.5352
1 28.928 22.0806 9.75919
1 28.1531 21.2736 9.72781
1 29.7236 22.063 10.5352
1 0.517315 21.2693 10.5352
1 0.511892 22.0713 9.75339
1 29.7402 21.2867 9.76638
1 1.31102 22.063 10.5352
1 2.10472 21.2693 10.5352
1 2.08362 22.0766 9.73037
1 1.32972 21.2923 9.72949
1 2.89842 22.063 10.5352
1 3.69212 21.2693 10.5352
1 3.69061 22.0679 9.74858
1 2.8595 21.2922 9.71727
1 4.48582 22.063 10.5352
1 5.27952 21.2693 10.5352
1 5.26075 22.0535 9.73906
1 4.47329 21.2628 9.72157
1 6.07322 22.063 10.5352
1 6.86692 21.2693 10.5352
1 6.79691 22.0459 9.70938
1 6.04777 21.24 9.74391
1 7.5 20.4756 10.5352
1 8.2937 19.6819 10.5352
1 8.34122 20.497 9.74551
1 7.56978 19.678 9.71608
1 9.0874 20.4756 10.5352
1 9.8811 19.6819 10.5352
1 9.88917 20.4947 9.73636
1 9.15174 19.6592 9.75121
1 10.6748 20.4756 10.5352
1 11.4685 19.6819 10.5352
1 11.4972 20.4766 9.74065
1 10.6934 19.6942 9.72531
1 12.2622 20.4756 10.5352
1 13.0559 19.6819 10.5352
1 13.0512 20.4881 9.74989
1 12.2742 19.6793 9.74174
1 13.8496 20.4756 10.5352
1 14.6433 19.6819 10.5352
1 14.6685 20.4791 9.73251
1 13.8547 19.6943 9.73828
1 15.437 20.4756 10.5352
1 16.2307 19.6819 10.5352
1 16.2432 20.4787 9.75227
1 15.4379 19.6789 9.7139
1 17.0244 20.4756 10.5352
1 17.8181 19.6819 10.5352
1 17.8201 20.4565 9.75116
1 17.0262 19.6912 9.74232
1 18.6118 20.4756 10.5352
1 19.4055 19.6819 10.5352
1 19.4171 20.4921 9.74238
1 18.5829 19.6709 9.77498
1 20.1992 20.4756 10.5352
1 20.9929 19.6819 10.5352
1 20.998 20.4508 9.72646
1 20.2124 19.7014 9.72659
1 21.7866 20.4756 10.5352
1 22.5803 19.6819 10.5352
1 22.6051 20.4776 9.76114
1 21.7617 19.6527 9.74053
1 23.374 20.4756 10.5352
1 24.1677 19.6819 10.5352
1 24.1757 20.5206 9.75728
1 23.3651 19.7048 9.75274
1 24.9614 20.4756 10.5352
1 25.7551 19.6819 10.5352
1 25.7598 20.4833 9.75461
1 24.9367 19.704 9.75379
1 26.5488 20.4756 10.5352
1 27.3425 19.6819 10.5352
1 27.3523 20.4712 9.75597
1 26.5363 19.6752 9.74497
1 28.1362 20.4756 10.5352
1 28.9299 19.6819 10.5352
1 28.9369 20.4818 9.72023
1 28.1276 19.7086 9.74847
1 29.7236 20.4756 10.5352
1 0.517315 19.6819 10.5352
1 0.502841 20.4935 9.74044
1 29.7048 19.6914 9.73859
1 1.31102 20.4756 10.5352
1 2.10472 19.6819 10.5352
1 2.10742 20.4807 9.73506
1 1.30061 19.6957 9.73795
1 2.89842 20.4756 10.5352
1 3.69212 19.6819 10.5352
1 3.67825 20.4823 9.74419
1 2.89039 19.6642 9.73646
1 4.48582 20.4756 10.5352
1 5.27952 19.6819 10.5352
1 5.26346 20.4707 9.7309
1 4.48194 19.6817 9.71768
1 6.07322 20.4756 10.5352
1 6.86692 19.6819 10.5352
1 6.81566 20.4934 9.70422
1 6.07075 19.6961 9.71406
1 7.5 18.8882 10.5352
1 8.2937 18.0945 10.5352
1 8.32911 18.899 9.73423
1 7.56544 18.0979 9.70607
1 9.0874 18.8882 10.5352
1 9.8811 18.0945 10.5352
1 9.9057 18.881 9.72921
1 9.09385 18.1017 9.72892
1 10.6748 18.8882 10.5352
1 11.4685 18.0945 10.5352
1 11.5102 18.8928 9.72142
1 10.7074 18.1015 9.74563
1 12.2622 18.8882 10.5352
1 13.0559 18.0945 10.5352
1 13.0635 18.8874 9.74058
1 12.2659 18.0901 9.75455
1 13.8496 18.8882 10.5352
1 14.6433 18.0945 10.5352
1 14.6484 18.9152 9.73688
1 13.877 18.0948 9.7133
1 15.437 18.8882 10.5352
1 16.2307 18.0945 10.5352
1 16.2224 18.9104 9.75196
1 15.4279 18.0963 9.73551
1 17.0244 18.8882 10.5352
1 17.8181 18.0945 10.5352
1 17.8017 18.8762 9.73207
1 16.9977 18.1043 9.76339
1 18.6118 18.8882 10.5352
1 19.4055 18.0945 10.5352
1 19.4303 18.9192 9.73185
1 18.5814 18.1132 9.74253
1 20.1992 18.8882 10.5352
1 20.9929 18.0945 10.5352
1 21.0049 18.8724 9.74556
1 20.1858 18.0854 9.74789
1 21.7866 18.8882 10.5352
1 22.5803 18.0945 10.5352
1 22.5886 18.8877 9.75866
1 21.8061 18.0877 9.74735
1 23.374 18.8882 10.5352
1 24.1677 18.0945 10.5352
1 24.1636 18.884 9.73867
1 23.3835 18.0778 9.7649
1 24.9614 18.8882 10.5352
1 25.7551 18.0945 10.5352
1 25.7556 18.9195 9.72935
1 24.9701 18.0973 9.72056
1 26.5488 18.8882 10.5352
1 27.3425 18.0945 10.5352
1 27.3563 18.878 9.74178
1 26.5495 18.1036 9.76452
1 28.1362 18.8882 10.5352
1 28.9299 18.0945 10.5352
1 28.9241 18.877 9.75492
1 28.1304 18.0798 9.74646
1 29.7236 18.8882 10.5352
1 0.517315 18.0945 10.5352
1 0.508078 18.8854 9.75686
1 29.716 18.0832 9.74664
1 1.31102 18.8882 10.5352
1 2.10472 18.0945 10.5352
1 2.1003 18.8867 9.72403
1 1.28581 18.1279 9.73646
1 2.89842 18.8882 10.5352
1 3.69212 18.0945 10.5352
1 3.69402 18.8815 9.75954
1 2.89124 18.1153 9.73507
1 4.48582 18.8882 10.5352
1 5.27952 18.0945 10.5352
1 5.28289 18.8825 9.72443
1 4.46292 18.1121 9.76239
1 6.07322 18.8882 10.5352
1 6.86692 18.0945 10.5352
1 6.78807 18.902 9.69758
1 6.03546 18.0892 9.73193
1 7.5 17.3008 10.5352
1 8.2937 16.5071 10.5352
1 8.30545 17.3268 9.74056
1 7.57226 16.5034 9.69848
1 9.0874 17.3008 10.5352
1 9.8811 16.5071 10.5352
1 9.8867 17.3237 9.75486
1 9.113 16.5297 9.75135
1 10.6748 17.3008 10.5352
1 11.4685 16.5071 10.5352
1 11.4869 17.3268 9.73453
1 10.6707 16.5365 9.75865
1 12.2622 17.3008 10.5352
1 13.0559 16.5071 10.5352
1 13.0719 17.2883 9.72242
1 12.2928 16.521 9.73189
1 13.8496 17.3008 10.5352
1 14.6433 16.5071 10.5352
1 14.6508 17.342 9.72195
1 13.8483 16.5148 9.75258
1 15.437 17.3008 10.5352
1 16.2307 16.5071 10.5352
1 16.2265 17.292 9.75517
1 15.4276 16.4941 9.74025
1 17.0244 17.3008 10.5352
1 17.8181 16.5071 10.5352
1 17.8255 17.3145 9.75194
1 17.0098 16.4909 9.72629
1 18.6118 17.3008 10.5352
1 19.4055 16.5071 10.5352
1 19.3987 17.292 9.74729
1 18.6266 16.4793 9.73062
1 20.1992 17.3008 10.5352
1 20.9929 16.5071 10.5352
1 21.0036 17.2924 9.75592
1 20.2155 16.4831 9.73706
1 21.7866 17.3008 10.5352
1 22.5803 16.5071 10.5352
1 22.5804 17.2896 9.74894
1 21.8031 16.4901 9.76875
1 23.374 17.3008 10.5352
1 24.1677 16.5071 10.5352
1 24.166 17.3047 9.73397
1 23.3725 16.4908 9.74143
1 24.9614 17.3008 10.5352
1 25.7551 16.5071 10.5352
1 25.7519 17.2879 9.75289
1 24.9818 16.5057 9.74573
1 26.5488 17.3008 10.5352
1 27.3425 16.5071 10.5352
1 27.3505 17.2617 9.7423
1 26.5369 16.507 9.74476
1 28.1362 17.3008 10.5352
1 28.9299 16.5071 10.5352
1 28.9425 17.2885 9.73817
1 28.1282 16.5065 9.75096
1 29.7236 17.3008 10.5352
1 0.517315 16.5071 10.5352
1 0.50008 17.3137 9.76708
1 29.7169 16.5102 9.76869
1 1.31102 17.3008 10.5352
1 2.10472 16.5071 10.5352
1 2.08897 17.3198 9.75599
1 1.33198 16.5012 9.72489
1 2.89842 17.3008 10.5352
1 3.69212 16.5071 10.5352
1 3.68615 17.3182 9.73204
1 2.8977 16.5075 9.73791
1 4.48582 17.3008 10.5352
1 5.27952 16.5071 10.5352
1 5.23733 17.3337 9.75548
1 4.45806 16.5065 9.75507
1 6.07322 17.3008 10.5352
1 6.86692 16.5071 10.5352
1 6.79793 17.3376 9.69475
1 6.03232 16.5081 9.75811
1 7.5 15.7134 10.5352
1 8.2937 14.9197 10.5352
1 8.32978 15.7209 9.73217
1 7.55695 14.8952 9.73194
1 9.0874 15.7134 10.5352
1 9.8811 14.9197 10.5352
1 9.89872 15.7104 9.74173
1 9.11671 14.9157 9.74796
1 10.6748 15.7134 10.5352
1 11.4685 14.9197 10.5352
1 11.4838 15.726 9.72837
1 10.7014 14.9231 9.74314
1 12.2622 15.7134 10.5352
1 13.0559 14.9197 10.5352
1 13.0555 15.7277 9.76339
1 12.2868 14.944 9.77537
1 13.8496 15.7134 10.5352
1 14.6433 14.9197 10.5352
1 14.648 15.7146 9.74961
1 13.8509 14.9004 9.74077
1 15.437 15.7134 10.5352
1 16.2307 14.9197 10.5352
1 16.2331 15.7089 9.72914
1 15.4518 14.9305 9.73396
1 17.0244 15.7134 10.5352
1 17.8181 14.9197 10.5352
1 17.8361 15.7052 9.72899
1 17.0101 14.929 9.75096
1 18.6118 15.7134 10.5352
1 19.4055 14.9197 10.5352
1 19.4194 15.7047 9.7345
1 18.5963 14.9082 9.76173
1 20.1992 15.7134 10.5352
1 20.9929 14.9197 10.5352
1 20.9844 15.6986 9.73221
1 20.2026 14.9009 9.73818
1 21.7866 15.7134 10.5352
1 22.5803 14.9197 10.5352
1 22.553 15.7153 9.76493
1 21.7665 14.9418 9.73524
1 23.374 15.7134 10.5352
1 24.1677 14.9197 10.5352
1 24.1693 15.7212 9.75282
1 23.3744 14.9184 9.7616
1 24.9614 15.7134 10.5352
1 25.7551 14.9197 10.5352
1 25.7388 15.708 9.78487
1 24.9679 14.9079 9.75808
1 26.5488 15.7134 10.5352
1 27.3425 14.9197 10.5352
1 27.3535 15.6965 9.74595
1 26.5457 14.9251 9.72322
1 28.1362 15.7134 10.5352
1 28.9299 14.9197 10.5352
1 28.9304 15.7024 9.7398
1 28.1403 14.8971 9.77882
1 29.7236 15.7134 10.5352
1 0.517315 14.9197 10.5352
1 0.54062 15.7399 9.73547
1 29.7327 14.9161 9.74444
1 1.31102 15.7134 10.5352
1 2.10472 14.9197 10.5352
1 2.09623 15.7381 9.73313
1 1.30329 14.9358 9.75446
1 2.89842 15.7134 10.5352
1 3.69212 14.9197 10.5352
1 3.67078 15.7025 9.7484
1 2.8779 14.9516 9.76245
1 4.48582 15.7134 10.5352
1 5.27952 14.9197 10.5352
1 5.27557 15.7203 9.75792
1 4.48168 14.9181 9.74953
1 6.07322 15.7134 10.5352
1 6.86692 14.9197 10.5352
1 6.80817 15.7077 9.7033
1 6.03511 14.9305 9.74073
1 7.5 14.126 10.5352
1 8.2937 13.3323 10.5352
1 8.34984 14.1455 9.75456
1 7.55793 13.3397 9.69633
1 9.0874 14.126 10.5352
1 9.8811 13.3323 10.5352
1 9.88401 14.1257 9.76727
1 9.08918 13.3393 9.73768
1 10.6748 14.126 10.5352
1 11.4685 13.3323 10.5352
1 11.4969 14.142 9.75045
1 10.702 13.3479 9.73201
1 12.2622 14.126 10.5352
1 13.0559 13.3323 10.5352
1 13.0705 14.1348 9.75998
1 12.2875 13.3447 9.73193
1 13.8496 14.126 10.5352
1 14.6433 13.3323 10.5352
1 14.6302 14.1119 9.73189
1 13.8311 13.3178 9.73735
1 15.437 14.126 10.5352
1 16.2307 13.3323 10.5352
1 16.2203 14.1098 9.73996
1 15.4407 13.3315 9.73544
1 17.0244 14.126 10.5352
1 17.8181 13.3323 10.5352
1 17.8014 14.1567 9.78308
1 17.022 13.3378 9.74256
1 18.6118 14.126 10.5352
1 19.4055 13.3323 10.5352
1 19.4274 14.1443 9.75214
1 18.5974 13.3571 9.75107
1 20.1992 14.126 10.5352
1 20.9929 13.3323 10.5352
1 20.9737 14.1196 9.7599
1 20.1909 13.3127 9.7556
1 21.7866 14.126 10.5352
1 22.5803 13.3323 10.5352
1 22.5643 14.1173 9.73509
1 21.7828 13.3512 9.7564
1 23.374 14.126 10.5352
1 24.1677 13.3323 10.5352
1 24.1647 14.1048 9.75242
1 23.3682 13.3425 9.74044
1 24.9614 14.126 10.5352
1 25.7551 13.3323 10.5352
1 25.7689 14.1089 9.7437
1 24.9528 13.3254 9.74618
1 26.5488 14.126 10.5352
1 27.3425 13.3323 10.5352
1 27.3359 14.1153 9.74728
1 26.5554 13.3117 9.7339
1 28.1362 14.126 10.5352
1 28.9299 13.3323 10.5352
1 28.9182 14.128 9.75954
1 28.1202 13.2987 9.72055
1 29.7236 14.126 10.5352
1 0.517315 13.3323 10.5352
1 0.51008 14.112 9.73134
1 29.6974 13.3393 9.7427
1 1.31102 14.126 10.5352
1 2.10472 13.3323 10.5352
1 2.09729 14.1085 9.73586
1 1.31765 13.3318 9.7308
1 2.89842 14.126 10.5352
1 3.69212 13.3323 10.5352
1 3.66964 14.1228 9.72242
1 2.90935 13.3261 9.75009
1 4.48582 14.126 10.5352
1 5.27952 13.3323 10.5352
1 5.24644 14.1036 9.75022
1 4.46367 13.3567 9.76338
1 6.07322 14.126 10.5352
1 6.86692 13.3323 10.5352
1 6.78791 14.1216 9.738
1 6.04076 13.3291 9.75482
1 7.5 12.5386 10.5352
1 8.2937 11.7449 10.5352
1 8.32882 12.5458 9.74451
1 7.56894 11.744 9.70669
1 9.0874 12.5386 10.5352
1 9.8811 11.7449 10.5352
1 9.87176 12.5419 9.73622
1 9.06154 11.7429 9.73553
1 10.6748 12.5386 10.5352
1 11.4685 11.7449 10.5352
1 11.5011 12.5203 9.73883
1 10.6852 11.7723 9.73407
1 12.2622 12.5386 10.5352
1 13.0559 11.7449 10.5352
1 13.0695 12.5146 9.74622
1 12.2428 11.7331 9.77548
1 13.8496 12.5386 10.5352
1 14.6433 11.7449 10.5352
1 14.6534 12.5748 9.74373
1 13.8624 11.7328 9.71254
1 15.437 12.5386 10.5352
1 16.2307 11.7449 10.5352
1 16.24 12.5382 9.73088
1 15.4377 11.7323 9.72769
1 17.0244 12.5386 10.5352
1 17.8181 11.7449 10.5352
1 17.8207 12.5262 9.74977
1 17.0063 11.722 9.73593
1 18.6118 12.5386 10.5352
1 19.4055 11.7449 10.5352
1 19.4199 12.556 9.728
1 18.6182 11.764 9.75092
1 20.1992 12.5386 10.5352
1 20.9929 11.7449 10.5352
1 20.9943 12.5448 9.72382
1 20.2066 11.7186 9.75112
1 21.7866 12.5386 10.5352
1 22.5803 11.7449 10.5352
1 22.5806 12.5505 9.7511
1 21.7854 11.7483 9.75156
1 23.374 12.5386 10.5352
1 24.1677 11.7449 10.5352
1 24.1481 12.5389 9.74759
1 23.3909 11.7431 9.73981
1 24.9614 12.5386 10.5352
1 25.7551 11.7449 10.5352
1 25.7488 12.5397 9.75679
1 24.9645 11.7209 9.74874
1 26.5488 12.5386 10.5352
1 27.3425 11.7449 10.5352
1 27.3312 12.5217 9.74524
1 26.5222 11.7512 9.73103
1 28.1362 12.5386 10.5352
1 28.9299 11.7449 10.5352
1 28.9411 12.5283 9.75499
1 28.1512 11.754 9.74392
1 29.7236 12.5386 10.5352
1 0.517315 11.7449 10.5352
1 0.50581 12.5288 9.73376
1 29.698 11.759 9.74985
1 1.31102 12.5386 10.5352
1 2.10472 11.7449 10.5352
1 2.09341 12.5376 9.73957
1 1.30561 11.7302 9.7653
1 2.89842 12.5386 10.5352
1 3.69212 11.7449 10.5352
1 3.68254 12.5414 9.73876
1 2.8982 11.7309 9.74848
1 4.48582 12.5386 10.5352
1 5.27952 11.7449 10.5352
1 5.24103 12.5354 9.73692
1 4.47861 11.7579 9.74395
1 6.07322 12.5386 10.5352
1 6.86692 11.7449 10.5352
1 6.7907 12.5266 9.70654
1 6.04169 11.7379 9.74397
1 7.5 10.9512 10.5352
1 8.2937 10.1575 10.5352
1 8.33214 10.96 9.74668
1 7.57812 10.1383 9.72896
1 9.0874 10.9512 10.5352
1 9.8811 10.1575 10.5352
1 9.86146 10.9657 9.756
1 9.11467 10.1489 9.72021
1 10.6748 10.9512 10.5352
1 11.4685 10.1575 10.5352
1 11.4717 10.9562 9.7322
1 10.6802 10.1461 9.74695
1 12.2622 10.9512 10.5352
1 13.0559 10.1575 10.5352
1 13.0435 10.935 9.75357
1 12.2916 10.1712 9.76831
1 13.8496 10.9512 10.5352
1 14.6433 10.1575 10.5352
1 14.649 10.9344 9.76196
1 13.8691 10.1461 9.74342
1 15.437 10.9512 10.5352
1 16.2307 10.1575 10.5352
1 16.2289 10.9258 9.74832
1 15.4535 10.1474 9.7204
1 17.0244 10.9512 10.5352
1 17.8181 10.1575 10.5352
1 17.8144 10.9356 9.75264
1 17.036 10.1394 9.73862
1 18.6118 10.9512 10.5352
1 19.4055 10.1575 10.5352
1 19.4067 10.9536 9.75223
1 18.6257 10.1475 9.75926
1 20.1992 10.9512 10.5352
1 20.9929 10.1575 10.5352
1 20.9938 10.9456 9.73963
1 20.1874 10.172 9.76156
1 21.7866 10.9512 10.5352
1 22.5803 10.1575 10.5352
1 22.5674 10.9424 9.73834
1 21.7961 10.1441 9.75846
1 23.374 10.9512 10.5352
1 24.1677 10.1575 10.5352
1 24.1568 10.9617 9.72952
1 23.3633 10.1616 9.74478
1 24.9614 10.9512 10.5352
1 25.7551 10.1575 10.5352
1 25.7372 10.9484 9.74187
1 24.9483 10.1613 9.75157
1 26.5488 10.9512 10.5352
1 27.3425 10.1575 10.5352
1 27.3271 10.9602 9.7447
1 26.5288 10.1453 9.74662
1 28.1362 10.9512 10.5352
1 28.9299 10.1575 10.5352
1 28.9471 10.9557 9.74478
1 28.1204 10.141 9.74103
1 29.7236 10.9512 10.5352
1 0.517315 10.1575 10.5352
1 0.498614 10.9391 9.76717
1 29.7303 10.1471 9.73763
1 1.31102 10.9512 10.5352
1 2.10472 10.1575 10.5352
1 2.0953 10.9572 9.73929
1 1.31156 10.1567 9.74034
1 2.89842 10.9512 10.5352
1 3.69212 10.1575 10.5352
1 3.70323 10.956 9.75697
1 2.87838 10.164 9.75583
1 4.48582 10.9512 10.5352
1 5.27952 10.1575 10.5352
1 5.24128 10.937 9.75996
1 4.45231 10.1508 9.74748
1 6.07322 10.9512 10.5352
1 6.86692 10.1575 10.5352
1 6.84112 10.9238 9.7082
1 6.06365 10.1665 9.74753
1 7.5 9.36379 10.5352
1 8.2937 8.57009 10.5352
1 8.36253 9.36419 9.72898
1 7.56473 8.58159 9.70692
1 9.0874 9.36379 10.5352
1 9.8811 8.57009 10.5352
1 9.88446 9.3659 9.74951
1 9.11477 8.55948 9.74731
1 10.6748 9.36379 10.5352
1 11.4685 8.57009 10.5352
1 11.5075 9.37 9.75173
1 10.7017 8.56082 9.72284
1 12.2622 9.36379 10.5352
1 13.0559 8.57009 10.5352
1 13.0618 9.34975 9.76351
1 12.2721 8.55283 9.78065
1 13.8496 9.36379 10.5352
1 14.6433 8.57009 10.5352
1 14.6456 9.33896 9.72668
1 13.842 8.55792 9.75123
1 15.437 9.36379 10.5352
1 16.2307 8.57009 10.5352
1 16.2338 9.3652 9.73476
1 15.439 8.54755 9.75684
1 17.0244 9.36379 10.5352
1 17.8181 8.57009 10.5352
1 17.8233 9.36423 9.75677
1 17.0549 8.57202 9.71356
1 18.6118 9.36379 10.5352
1 19.4055 8.57009 10.5352
1 19.4212 9.35195 9.7424
1 18.6282 8.58129 9.70819
1 20.1992 9.36379 10.5352
1 20.9929 8.57009 10.5352
1 21.0123 9.36268 9.74384
1 20.2311 8.5801 9.73288
1 21.7866 9.36379 10.5352
1 22.5803 8.57009 10.5352
1 22.5809 9.37456 9.70964
1 21.7775 8.59687 9.72575
1 23.374 9.36379 10.5352
1 24.1677 8.57009 10.5352
1 24.165 9.36419 9.74186
1 23.3564 8.57719 9.74526
1 24.9614 9.36379 10.5352
1 25.7551 8.57009 10.5352
1 25.7451 9.33697 9.74508
1 24.9673 8.56566 9.75942
1 26.5488 9.36379 10.5352
1 27.3425 8.57009 10.5352
1 27.3386 9.37785 9.73903
1 26.565 8.56085 9.73444
1 28.1362 9.36379 10.5352
1 28.9299 8.57009 10.5352
1 28.9142 9.36596 9.7467
1 28.1236 8.55001 9.74945
1 29.7236 9.36379 10.5352
1 0.517315 8.57009 10.5352
1 0.510425 9.38034 9.74162
1 29.7203 8.60437 9.75909
1 1.31102 9.36379 10.5352
1 2.10472 8.57009 10.5352
1 2.10556 9.35529 9.73461
1 1.30365 8.58929 9.74829
1 2.89842 9.36379 10.5352
1 3.69212 8.57009 10.5352
1 3.66143 9.38527 9.76004
1 2.89358 8.58007 9.73198
1 4.48582 9.36379 10.5352
1 5.27952 8.57009 10.5352
1 5.2361 9.37045 9.75367
1 4.45834 8.57741 9.73582
1 6.07322 9.36379 10.5352
1 6.86692 8.57009 10.5352
1 6.82401 9.35557 9.68844
1 6.03788 8.59694 9.71773
1 7.5 7.77639 10.5352
1 8.2937 6.98268 10.5352
1 8.33593 7.78555 9.72987
1 7.58841 6.97337 9.69941
1 9.0874 7.77639 10.5352
1 9.8811 6.98268 10.5352
1 9.89046 7.79239 9.74999
1 9.0823 6.99649 9.75366
1 10.6748 7.77639 10.5352
1 11.4685 6.98268 10.5352
1 11.4825 7.78364 9.74976
1 10.6895 7.00486 9.75286
1 12.2622 7.77639 10.5352
1 13.0559 6.98268 10.5352
1 13.0644 7.78212 9.73785
1 12.2799 7.00666 9.74081
1 13.8496 7.77639 10.5352
1 14.6433 6.98268 10.5352
1 14.6186 7.78435 9.76687
1 13.8218 6.96753 9.74899
1 15.437 7.77639 10.5352
1 16.2307 6.98268 10.5352
1 16.2132 7.77079 9.73711
1 15.4342 6.97785 9.7115
1 17.0244 7.77639 10.5352
1 17.8181 6.98268 10.5352
1 17.8432 7.78713 9.73123
1 17.0262 7.00356 9.73752
1 18.6118 7.77639 10.5352
1 19.4055 6.98268 10.5352
1 19.4238 7.77228 9.73587
1 18.6194 7.01953 9.71882
1 20.1992 7.77639 10.5352
1 20.9929 6.98268 10.5352
1 21.0171 7.78904 9.73066
1 20.2333 7.01913 9.74439
1 21.7866 7.77639 10.5352
1 22.5803 6.98268 10.5352
1 22.543 7.78245 9.74287
1 21.7625 6.98346 9.71847
1 23.374 7.77639 10.5352
1 24.1677 6.98268 10.5352
1 24.1426 7.76648 9.73755
1 23.3526 6.9624 9.74306
1 24.9614 7.77639 10.5352
1 25.7551 6.98268 10.5352
1 25.7796 7.76221 9.69886
1 24.9793 6.97465 9.7594
1 26.5488 7.77639 10.5352
1 27.3425 6.98268 10.5352
1 27.341 7.78062 9.73294
1 26.5675 6.97799 9.72649
1 28.1362 7.77639 10.5352
1 28.9299 6.98268 10.5352
1 28.9442 7.78388 9.74833
1 28.1271 6.9831 9.74054
1 29.7236 7.77639 10.5352
1 0.517315 6.98268 10.5352
1 0.519412 7.79159 9.75073
1 29.7147 6.98135 9.76282
1 1.31102 7.77639 10.5352
1 2.10472 6.98268 10.5352
1 2.11298 7.79988 9.74951
1 1.30231 6.98099 9.72692
1 2.89842 7.77639 10.5352
1 3.69212 6.98268 10.5352
1 3.68148 7.7875 9.73531
1 2.89364 6.97934 9.72256
1 4.48582 7.77639 10.5352
1 5.27952 6.98268 10.5352
1 5.26034 7.76021 9.72219
1 4.45981 6.97395 9.71638
1 6.07322 7.77639 10.5352
1 6.86692 6.98268 10.5352
1 6.79894 7.77239 9.71626
1 6.04203 6.98374 9.73754
1 7.5 6.18898 10.5352
1 8.2937 5.39528 10.5352
1 8.32258 6.19745 9.73253
1 7.59515 5.40411 9.73054
1 9.0874 6.18898 10.5352
1 9.8811 5.39528 10.5352
1 9.88636 6.19203 9.76709
1 9.11274 5.38746 9.73853
1 10.6748 6.18898 10.5352
1 11.4685 5.39528 10.5352
1 11.5022 6.213 9.75051
1 10.6825 5.37408 9.72532
1 12.2622 6.18898 10.5352
1 13.0559 5.39528 10.5352
1 13.0377 6.19008 9.76691
1 12.2748 5.40774 9.75829
1 13.8496 6.18898 10.5352
1 14.6433 5.39528 10.5352
1 14.6197 6.17452 9.72822
1 13.8538 5.41483 9.73716
1 15.437 6.18898 10.5352
1 16.2307 5.39528 10.5352