9376
Atoms. Timestep: 4000000
1 15 3.55271e-15 10.6067
1 15.7937 29.2063 10.6067
1 15.8164 29.9427 9.76629
1 15.0774 29.19 9.79759
1 16.5874 3.55271e-15 10.6067
1 17.3811 29.2063 10.6067
1 17.4046 29.925 9.76203
1 16.5988 29.1822 9.82281
1 18.1748 3.55271e-15 10.6067
1 18.9685 29.2063 10.6067
1 18.9748 29.9368 9.77274
1 18.2038 29.1428 9.79889
1 19.7622 3.55271e-15 10.6067
1 20.5559 29.2063 10.6067
1 20.5521 29.9323 9.78362
1 19.7598 29.1886 9.78683
1 21.3496 3.55271e-15 10.6067
1 22.1433 29.2063 10.6067
1 22.1404 29.9378 9.79334
1 21.34 29.1918 9.79575
1 22.937 3.55271e-15 10.6067
1 23.7307 29.2063 10.6067
1 23.7339 29.9327 9.78668
1 22.9172 29.1921 9.82688
1 24.5244 3.55271e-15 10.6067
1 25.3181 29.2063 10.6067
1 25.344 29.9339 9.81491
1 24.5393 29.1719 9.79969
1 26.1118 3.55271e-15 10.6067
1 26.9055 29.2063 10.6067
1 26.9364 29.9276 9.78154
1 26.1171 29.1684 9.81756
1 27.6992 3.55271e-15 10.6067
1 28.4929 29.2063 10.6067
1 28.4965 29.934 9.81091
1 27.7081 29.1393 9.79868
1 29.2866 3.55271e-15 10.6067
1 0.08031 29.2063 10.6067
1 0.0909862 29.9424 9.78087
1 29.2794 29.1797 9.81219
1 0.874011 3.55271e-15 10.6067
1 1.66771 29.2063 10.6067
1 1.68248 29.9346 9.7755
1 0.854879 29.1745 9.81974
1 2.46141 3.55271e-15 10.6067
1 3.25511 29.2063 10.6067
1 3.25524 29.9411 9.77311
1 2.46538 29.2071 9.81473
1 4.04881 3.55271e-15 10.6067
1 4.84251 29.2063 10.6067
1 4.85007 29.9454 9.77929
1 4.06603 29.1896 9.7733
1 5.63621 3.55271e-15 10.6067
1 6.42991 29.2063 10.6067
1 6.41456 29.9431 9.76921
1 5.64385 29.1519 9.82626
1 7.22361 3.55271e-15 10.6067
1 8.01732 29.2063 10.6067
1 8.00489 29.9062 9.75659
1 7.20785 29.1718 9.79188
1 8.81102 3.55271e-15 10.6067
1 9.60472 29.2063 10.6067
1 9.58689 29.8962 9.7757
1 8.81118 29.1901 9.80964
1 10.3984 3.55271e-15 10.6067
1 11.1921 29.2063 10.6067
1 11.1913 29.9397 9.77487
1 10.3804 29.1674 9.84541
1 11.9858 3.55271e-15 10.6067
1 12.7795 29.2063 10.6067
1 12.7718 29.9306 9.77374
1 11.991 29.1683 9.80829
1 13.5732 3.55271e-15 10.6067
1 14.3669 29.2063 10.6067
1 14.303 29.9377 9.76886
1 13.5428 29.183 9.79271
1 15 28.4126 10.6067
1 15.7937 27.6189 10.6067
1 15.8253 28.3886 9.8017
1 15.0748 27.6054 9.7717
1 16.5874 28.4126 10.6067
1 17.3811 27.6189 10.6067
1 17.3977 28.3777 9.82382
1 16.6115 27.6017 9.82153
1 18.1748 28.4126 10.6067
1 18.9685 27.6189 10.6067
1 18.9766 28.3822 9.82908
1 18.1782 27.6186 9.81295
1 19.7622 28.4126 10.6067
1 20.5559 27.6189 10.6067
1 20.5466 28.3953 9.8346
1 19.7556 27.615 9.80093
1 21.3496 28.4126 10.6067
1 22.1433 27.6189 10.6067
1 22.1239 28.4007 9.82471
1 21.3225 27.603 9.81219
1 22.937 28.4126 10.6067
1 23.7307 27.6189 10.6067
1 23.7054 28.3986 9.80987
1 22.9437 27.6071 9.81462
1 24.5244 28.4126 10.6067
1 25.3181 27.6189 10.6067
1 25.3236 28.3812 9.80624
1 24.5064 27.6081 9.80435
1 26.1118 28.4126 10.6067
1 26.9055 27.6189 10.6067
1 26.8963 28.3684 9.83009
1 26.1133 27.5935 9.79768
1 27.6992 28.4126 10.6067
1 28.4929 27.6189 10.6067
1 28.5155 28.3949 9.79317
1 27.6916 27.623 9.81292
1 29.2866 28.4126 10.6067
1 0.08031 27.6189 10.6067
1 0.0673557 28.3934 9.82011
1 29.2991 27.5988 9.81893
1 0.874011 28.4126 10.6067
1 1.66771 27.6189 10.6067
1 1.64804 28.4168 9.82584
1 0.850742 27.6139 9.80638
1 2.46141 28.4126 10.6067
1 3.25511 27.6189 10.6067
1 3.22139 28.395 9.80365
1 2.43987 27.6322 9.82057
1 4.04881 28.4126 10.6067
1 4.84251 27.6189 10.6067
1 4.84389 28.3958 9.80172
1 4.05619 27.6358 9.80095
1 5.63621 28.4126 10.6067
1 6.42991 27.6189 10.6067
1 6.434 28.3851 9.81622
1 5.61905 27.6271 9.8137
1 7.22361 28.4126 10.6067
1 8.01732 27.6189 10.6067
1 8.02165 28.3779 9.78484
1 7.21991 27.6275 9.79233
1 8.81102 28.4126 10.6067
1 9.60472 27.6189 10.6067
1 9.60706 28.4185 9.80373
1 8.83784 27.6052 9.80297
1 10.3984 28.4126 10.6067
1 11.1921 27.6189 10.6067
1 11.1977 28.3992 9.825
1 10.3774 27.6046 9.81097
1 11.9858 28.4126 10.6067
1 12.7795 27.6189 10.6067
1 12.7539 28.3673 9.7961
1 11.9823 27.6128 9.80781
1 13.5732 28.4126 10.6067
1 14.3669 27.6189 10.6067
1 14.3025 28.4024 9.78344
1 13.5517 27.589 9.8226
1 15 26.8252 10.6067
1 15.7937 26.0315 10.6067
1 15.8236 26.806 9.82768
1 15.0496 26.0335 9.77897
1 16.5874 26.8252 10.6067
1 17.3811 26.0315 10.6067
1 17.4109 26.81 9.82863
1 16.6054 26.0488 9.82888
1 18.1748 26.8252 10.6067
1 18.9685 26.0315 10.6067
1 18.9565 26.797 9.83073
1 18.1646 26.0224 9.80501
1 19.7622 26.8252 10.6067
1 20.5559 26.0315 10.6067
1 20.5547 26.806 9.7949
1 19.7641 26.0472 9.80499
1 21.3496 26.8252 10.6067
1 22.1433 26.0315 10.6067
1 22.1416 26.8328 9.80631
1 21.3792 26.0354 9.81434
1 22.937 26.8252 10.6067
1 23.7307 26.0315 10.6067
1 23.7016 26.8017 9.81933
1 22.9464 26.0494 9.78916
1 24.5244 26.8252 10.6067
1 25.3181 26.0315 10.6067
1 25.3069 26.8462 9.7917
1 24.5324 26.0289 9.81613
1 26.1118 26.8252 10.6067
1 26.9055 26.0315 10.6067
1 26.8974 26.8225 9.80449
1 26.1118 26.0174 9.80576
1 27.6992 26.8252 10.6067
1 28.4929 26.0315 10.6067
1 28.4827 26.8249 9.81322
1 27.7157 26.04 9.81509
1 29.2866 26.8252 10.6067
1 0.08031 26.0315 10.6067
1 0.0780487 26.8195 9.80158
1 29.2779 26.0317 9.80387
1 0.874011 26.8252 10.6067
1 1.66771 26.0315 10.6067
1 1.64408 26.7824 9.8028
1 0.878479 26.0224 9.83297
1 2.46141 26.8252 10.6067
1 3.25511 26.0315 10.6067
1 3.26849 26.8209 9.80759
1 2.49053 26.0175 9.77844
1 4.04881 26.8252 10.6067
1 4.84251 26.0315 10.6067
1 4.81054 26.8205 9.80437
1 4.03803 26.017 9.80927
1 5.63621 26.8252 10.6067
1 6.42991 26.0315 10.6067
1 6.42519 26.8214 9.83475
1 5.62165 26.0341 9.8103
1 7.22361 26.8252 10.6067
1 8.01732 26.0315 10.6067
1 8.01233 26.8309 9.80734
1 7.21698 26.0173 9.82234
1 8.81102 26.8252 10.6067
1 9.60472 26.0315 10.6067
1 9.60697 26.817 9.80563
1 8.80668 26.0409 9.80245
1 10.3984 26.8252 10.6067
1 11.1921 26.0315 10.6067
1 11.1922 26.817 9.82091
1 10.3777 26.0204 9.81648
1 11.9858 26.8252 10.6067
1 12.7795 26.0315 10.6067
1 12.7452 26.846 9.81289
1 11.9709 26.0336 9.81646
1 13.5732 26.8252 10.6067
1 14.3669 26.0315 10.6067
1 14.293 26.8297 9.77577
1 13.5313 26.0479 9.79961
1 15 25.2378 10.6067
1 15.7937 24.4441 10.6067
1 15.8072 25.2431 9.7924
1 15.0644 24.4411 9.78233
1 16.5874 25.2378 10.6067
1 17.3811 24.4441 10.6067
1 17.4237 25.2481 9.81217
1 16.5878 24.4383 9.80423
1 18.1748 25.2378 10.6067
1 18.9685 24.4441 10.6067
1 18.965 25.2095 9.8238
1 18.171 24.4433 9.82168
1 19.7622 25.2378 10.6067
1 20.5559 24.4441 10.6067
1 20.5262 25.2103 9.787
1 19.7787 24.4267 9.8041
1 21.3496 25.2378 10.6067
1 22.1433 24.4441 10.6067
1 22.1419 25.2448 9.81076
1 21.3432 24.4587 9.82274
1 22.937 25.2378 10.6067
1 23.7307 24.4441 10.6067
1 23.7404 25.2231 9.80889
1 22.936 24.4569 9.82324
1 24.5244 25.2378 10.6067
1 25.3181 24.4441 10.6067
1 25.3091 25.2331 9.83595
1 24.5089 24.4561 9.82215
1 26.1118 25.2378 10.6067
1 26.9055 24.4441 10.6067
1 26.8927 25.2361 9.80565
1 26.1021 24.4474 9.82752
1 27.6992 25.2378 10.6067
1 28.4929 24.4441 10.6067
1 28.4949 25.2152 9.81526
1 27.6859 24.4616 9.80182
1 29.2866 25.2378 10.6067
1 0.08031 24.4441 10.6067
1 0.071916 25.2222 9.81092
1 29.3045 24.4408 9.80567
1 0.874011 25.2378 10.6067
1 1.66771 24.4441 10.6067
1 1.69528 25.2449 9.82199
1 0.87262 24.4583 9.80784
1 2.46141 25.2378 10.6067
1 3.25511 24.4441 10.6067
1 3.27248 25.213 9.81255
1 2.46681 24.4232 9.80853
1 4.04881 25.2378 10.6067
1 4.84251 24.4441 10.6067
1 4.82341 25.234 9.82737
1 4.05392 24.4566 9.81599
1 5.63621 25.2378 10.6067
1 6.42991 24.4441 10.6067
1 6.41976 25.2404 9.80453
1 5.66161 24.4219 9.80578
1 7.22361 25.2378 10.6067
1 8.01732 24.4441 10.6067
1 8.02587 25.227 9.79751
1 7.21398 24.4453 9.81822
1 8.81102 25.2378 10.6067
1 9.60472 24.4441 10.6067
1 9.57371 25.2477 9.81083
1 8.79668 24.4667 9.81204
1 10.3984 25.2378 10.6067
1 11.1921 24.4441 10.6067
1 11.1864 25.2476 9.79145
1 10.4004 24.446 9.80057
1 11.9858 25.2378 10.6067
1 12.7795 24.4441 10.6067
1 12.7645 25.2429 9.81558
1 11.9664 24.4417 9.80025
1 13.5732 25.2378 10.6067
1 14.3669 24.4441 10.6067
1 14.2728 25.2458 9.78138
1 13.5498 24.4636 9.80553
1 15 23.6504 10.6067
1 15.7937 22.8567 10.6067
1 15.847 23.6342 9.80382
1 15.0797 22.8594 9.76226
1 16.5874 23.6504 10.6067
1 17.3811 22.8567 10.6067
1 17.3764 23.6245 9.80818
1 16.6087 22.8193 9.83141
1 18.1748 23.6504 10.6067
1 18.9685 22.8567 10.6067
1 18.9809 23.643 9.78964
1 18.1836 22.868 9.82682
1 19.7622 23.6504 10.6067
1 20.5559 22.8567 10.6067
1 20.562 23.6174 9.83389
1 19.7744 22.8358 9.78722
1 21.3496 23.6504 10.6067
1 22.1433 22.8567 10.6067
1 22.1359 23.6654 9.83617
1 21.3628 22.8786 9.84161
1 22.937 23.6504 10.6067
1 23.7307 22.8567 10.6067
1 23.7289 23.6389 9.81527
1 22.9534 22.8749 9.82076
1 24.5244 23.6504 10.6067
1 25.3181 22.8567 10.6067
1 25.3229 23.6374 9.8235
1 24.5319 22.8668 9.82109
1 26.1118 23.6504 10.6067
1 26.9055 22.8567 10.6067
1 26.9114 23.6594 9.84298
1 26.1317 22.8665 9.79922
1 27.6992 23.6504 10.6067
1 28.4929 22.8567 10.6067
1 28.4642 23.6509 9.84151
1 27.6784 22.8749 9.81885
1 29.2866 23.6504 10.6067
1 0.08031 22.8567 10.6067
1 0.0847317 23.6123 9.84806
1 29.2801 22.8959 9.81919
1 0.874011 23.6504 10.6067
1 1.66771 22.8567 10.6067
1 1.67813 23.6497 9.81924
1 0.872286 22.8445 9.83279
1 2.46141 23.6504 10.6067
1 3.25511 22.8567 10.6067
1 3.26125 23.6355 9.81382
1 2.46251 22.8525 9.82613
1 4.04881 23.6504 10.6067
1 4.84251 22.8567 10.6067
1 4.84058 23.6378 9.81069
1 4.03711 22.8335 9.7893
1 5.63621 23.6504 10.6067
1 6.42991 22.8567 10.6067
1 6.45396 23.6785 9.80259
1 5.65938 22.8671 9.82095
1 7.22361 23.6504 10.6067
1 8.01732 22.8567 10.6067
1 8.00468 23.652 9.80529
1 7.20704 22.8838 9.81783
1 8.81102 23.6504 10.6067
1 9.60472 22.8567 10.6067
1 9.56378 23.6748 9.80639
1 8.79814 22.8668 9.81382
1 10.3984 23.6504 10.6067
1 11.1921 22.8567 10.6067
1 11.1795 23.645 9.8037
1 10.381 22.8633 9.81806
1 11.9858 23.6504 10.6067
1 12.7795 22.8567 10.6067
1 12.7503 23.6325 9.80731
1 11.9819 22.879 9.79371
1 13.5732 23.6504 10.6067
1 14.3669 22.8567 10.6067
1 14.3002 23.65 9.77888
1 13.552 22.8536 9.77459
1 15 22.063 10.6067
1 15.7937 21.2693 10.6067
1 15.841 22.0692 9.80359
1 15.1029 21.242 9.74483
1 16.5874 22.063 10.6067
1 17.3811 21.2693 10.6067
1 17.406 22.0686 9.81226
1 16.6167 21.2709 9.78962
1 18.1748 22.063 10.6067
1 18.9685 21.2693 10.6067
1 18.9652 22.0433 9.80721
1 18.1694 21.2716 9.82071
1 19.7622 22.063 10.6067
1 20.5559 21.2693 10.6067
1 20.5612 22.0999 9.80762
1 19.765 21.2717 9.81162
1 21.3496 22.063 10.6067
1 22.1433 21.2693 10.6067
1 22.1555 22.0637 9.82695
1 21.3325 21.2896 9.82866
1 22.937 22.063 10.6067
1 23.7307 21.2693 10.6067
1 23.7334 22.0483 9.80663
1 22.9513 21.2646 9.82485
1 24.5244 22.063 10.6067
1 25.3181 21.2693 10.6067
1 25.3301 22.0537 9.80129
1 24.5065 21.2816 9.79804
1 26.1118 22.063 10.6067
1 26.9055 21.2693 10.6067
1 26.8955 22.0593 9.81191
1 26.1233 21.2766 9.8498
1 27.6992 22.063 10.6067
1 28.4929 21.2693 10.6067
1 28.5119 22.0662 9.79887
1 27.7033 21.262 9.80118
1 29.2866 22.063 10.6067
1 0.08031 21.2693 10.6067
1 0.0628286 22.0901 9.81022
1 29.2988 21.2598 9.83528
1 0.874011 22.063 10.6067
1 1.66771 21.2693 10.6067
1 1.65964 22.0487 9.82329
1 0.851056 21.2797 9.79764
1 2.46141 22.063 10.6067
1 3.25511 21.2693 10.6067
1 3.24915 22.0876 9.81824
1 2.4643 21.2998 9.8117
1 4.04881 22.063 10.6067
1 4.84251 21.2693 10.6067
1 4.87876 22.0633 9.80429
1 4.0569 21.2871 9.81472
1 5.63621 22.063 10.6067
1 6.42991 21.2693 10.6067
1 6.44702 22.0261 9.81893
1 5.62958 21.2514 9.80004
1 7.22361 22.063 10.6067
1 8.01732 21.2693 10.6067
1 8.01773 22.0832 9.84144
1 7.21296 21.2501 9.8123
1 8.81102 22.063 10.6067
1 9.60472 21.2693 10.6067
1 9.60569 22.0602 9.80522
1 8.77557 21.2672 9.80274
1 10.3984 22.063 10.6067
1 11.1921 21.2693 10.6067
1 11.1921 22.0682 9.82871
1 10.3814 21.2733 9.79448
1 11.9858 22.063 10.6067
1 12.7795 21.2693 10.6067
1 12.7622 22.0719 9.80881
1 12.0033 21.2876 9.81571
1 13.5732 22.063 10.6067
1 14.3669 21.2693 10.6067
1 14.3159 22.0497 9.75631
1 13.5343 21.2709 9.79146
1 15 20.4756 10.6067
1 15.7937 19.6819 10.6067
1 15.8392 20.4799 9.80057
1 15.0711 19.6849 9.7793
1 16.5874 20.4756 10.6067
1 17.3811 19.6819 10.6067
1 17.4132 20.4784 9.81301
1 16.6184 19.6795 9.79898
1 18.1748 20.4756 10.6067
1 18.9685 19.6819 10.6067
1 18.9762 20.475 9.79242
1 18.1959 19.6918 9.81584
1 19.7622 20.4756 10.6067
1 20.5559 19.6819 10.6067
1 20.5504 20.4543 9.81312
1 19.7556 19.6821 9.80517
1 21.3496 20.4756 10.6067
1 22.1433 19.6819 10.6067
1 22.1524 20.4607 9.8106
1 21.3639 19.6538 9.79209
1 22.937 20.4756 10.6067
1 23.7307 19.6819 10.6067
1 23.7219 20.4859 9.82239
1 22.93 19.7039 9.84527
1 24.5244 20.4756 10.6067
1 25.3181 19.6819 10.6067
1 25.3219 20.4733 9.8318
1 24.5509 19.6762 9.82812
1 26.1118 20.4756 10.6067
1 26.9055 19.6819 10.6067
1 26.9085 20.4534 9.84509
1 26.089 19.6807 9.81363
1 27.6992 20.4756 10.6067
1 28.4929 19.6819 10.6067
1 28.4906 20.4551 9.79824
1 27.7169 19.6707 9.82809
1 29.2866 20.4756 10.6067
1 0.08031 19.6819 10.6067
1 0.0725374 20.4702 9.82475
1 29.2941 19.6653 9.82516
1 0.874011 20.4756 10.6067
1 1.66771 19.6819 10.6067
1 1.67299 20.4896 9.80448
1 0.884208 19.6929 9.81675
1 2.46141 20.4756 10.6067
1 3.25511 19.6819 10.6067
1 3.24505 20.478 9.82803
1 2.46852 19.6622 9.81041
1 4.04881 20.4756 10.6067
1 4.84251 19.6819 10.6067
1 4.83287 20.4888 9.83055
1 4.05575 19.6615 9.79467
1 5.63621 20.4756 10.6067
1 6.42991 19.6819 10.6067
1 6.40165 20.462 9.81899
1 5.61036 19.6939 9.81699
1 7.22361 20.4756 10.6067
1 8.01732 19.6819 10.6067
1 7.99481 20.4724 9.80517
1 7.22357 19.6996 9.79558
1 8.81102 20.4756 10.6067
1 9.60472 19.6819 10.6067
1 9.56873 20.4919 9.81674
1 8.79066 19.7133 9.80811
1 10.3984 20.4756 10.6067
1 11.1921 19.6819 10.6067
1 11.2057 20.4917 9.8185
1 10.3961 19.7051 9.79485
1 11.9858 20.4756 10.6067
1 12.7795 19.6819 10.6067
1 12.7593 20.4916 9.83434
1 11.9744 19.7009 9.82646
1 13.5732 20.4756 10.6067
1 14.3669 19.6819 10.6067
1 14.2953 20.478 9.78082
1 13.5274 19.6883 9.79577
1 15 18.8882 10.6067
1 15.7937 18.0945 10.6067
1 15.8429 18.8721 9.82053
1 15.069 18.099 9.79296
1 16.5874 18.8882 10.6067
1 17.3811 18.0945 10.6067
1 17.3686 18.8764 9.81025
1 16.6162 18.072 9.80345
1 18.1748 18.8882 10.6067
1 18.9685 18.0945 10.6067
1 18.9522 18.8785 9.80703
1 18.198 18.0774 9.79491
1 19.7622 18.8882 10.6067
1 20.5559 18.0945 10.6067
1 20.5424 18.8829 9.80294
1 19.7741 18.1036 9.81184
1 21.3496 18.8882 10.6067
1 22.1433 18.0945 10.6067
1 22.1394 18.9001 9.81786
1 21.3633 18.0845 9.78879
1 22.937 18.8882 10.6067
1 23.7307 18.0945 10.6067
1 23.7332 18.8984 9.8137
1 22.9272 18.1094 9.82389
1 24.5244 18.8882 10.6067
1 25.3181 18.0945 10.6067
1 25.324 18.874 9.83009
1 24.5442 18.1073 9.79417
1 26.1118 18.8882 10.6067
1 26.9055 18.0945 10.6067
1 26.9137 18.8807 9.83862
1 26.1187 18.0865 9.81559
1 27.6992 18.8882 10.6067
1 28.4929 18.0945 10.6067
1 28.5041 18.8813 9.81704
1 27.708 18.0943 9.82891
1 29.2866 18.8882 10.6067
1 0.08031 18.0945 10.6067
1 0.105784 18.8909 9.78998
1 29.2876 18.0901 9.79051
1 0.874011 18.8882 10.6067
1 1.66771 18.0945 10.6067
1 1.67194 18.8734 9.8384
1 0.868673 18.0837 9.79398
1 2.46141 18.8882 10.6067
1 3.25511 18.0945 10.6067
1 3.25383 18.904 9.8099
1 2.46573 18.079 9.80172
1 4.04881 18.8882 10.6067
1 4.84251 18.0945 10.6067
1 4.85665 18.8763 9.79637
1 4.05498 18.1211 9.82044
1 5.63621 18.8882 10.6067
1 6.42991 18.0945 10.6067
1 6.43946 18.906 9.80912
1 5.65741 18.0974 9.81474
1 7.22361 18.8882 10.6067
1 8.01732 18.0945 10.6067
1 8.0265 18.8969 9.80005
1 7.21837 18.1346 9.78316
1 8.81102 18.8882 10.6067
1 9.60472 18.0945 10.6067
1 9.60306 18.898 9.82226
1 8.79681 18.105 9.82909
1 10.3984 18.8882 10.6067
1 11.1921 18.0945 10.6067
1 11.1901 18.9001 9.81642
1 10.395 18.0969 9.83085
1 11.9858 18.8882 10.6067
1 12.7795 18.0945 10.6067
1 12.7577 18.8882 9.80159
1 11.9624 18.1015 9.8247
1 13.5732 18.8882 10.6067
1 14.3669 18.0945 10.6067
1 14.3024 18.8908 9.77137
1 13.5239 18.0877 9.79739
1 15 17.3008 10.6067
1 15.7937 16.5071 10.6067
1 15.829 17.2964 9.83866
1 15.0676 16.509 9.79363
1 16.5874 17.3008 10.6067
1 17.3811 16.5071 10.6067
1 17.3764 17.2945 9.8396
1 16.6153 16.493 9.81363
1 18.1748 17.3008 10.6067
1 18.9685 16.5071 10.6067
1 18.9814 17.2936 9.81158
1 18.1637 16.5063 9.80248
1 19.7622 17.3008 10.6067
1 20.5559 16.5071 10.6067
1 20.5396 17.285 9.8079
1 19.7778 16.4862 9.81257
1 21.3496 17.3008 10.6067
1 22.1433 16.5071 10.6067
1 22.1611 17.309 9.79782
1 21.3613 16.5163 9.82057
1 22.937 17.3008 10.6067
1 23.7307 16.5071 10.6067
1 23.7521 17.3049 9.82246
1 22.95 16.4969 9.80762
1 24.5244 17.3008 10.6067
1 25.3181 16.5071 10.6067
1 25.3513 17.3111 9.82823
1 24.5093 16.5059 9.81123
1 26.1118 17.3008 10.6067
1 26.9055 16.5071 10.6067
1 26.9217 17.2983 9.82874
1 26.1179 16.4976 9.79756
1 27.6992 17.3008 10.6067
1 28.4929 16.5071 10.6067
1 28.4659 17.325 9.80605
1 27.7069 16.5206 9.81544
1 29.2866 17.3008 10.6067
1 0.08031 16.5071 10.6067
1 0.0636602 17.2935 9.79984
1 29.2761 16.501 9.80841
1 0.874011 17.3008 10.6067
1 1.66771 16.5071 10.6067
1 1.65663 17.3076 9.81453
1 0.846347 16.4788 9.78637
1 2.46141 17.3008 10.6067
1 3.25511 16.5071 10.6067
1 3.28695 17.3082 9.81978
1 2.48822 16.5332 9.82314
1 4.04881 17.3008 10.6067
1 4.84251 16.5071 10.6067
1 4.86041 17.3032 9.83907
1 4.05992 16.5172 9.82245
1 5.63621 17.3008 10.6067
1 6.42991 16.5071 10.6067
1 6.45149 17.3002 9.82079
1 5.65424 16.4984 9.82855
1 7.22361 17.3008 10.6067
1 8.01732 16.5071 10.6067
1 8.0219 17.2986 9.81872
1 7.2434 16.5216 9.80361
1 8.81102 17.3008 10.6067
1 9.60472 16.5071 10.6067
1 9.58915 17.3133 9.82208
1 8.78949 16.5225 9.82532
1 10.3984 17.3008 10.6067
1 11.1921 16.5071 10.6067
1 11.1517 17.279 9.8219
1 10.3861 16.485 9.80839
1 11.9858 17.3008 10.6067
1 12.7795 16.5071 10.6067
1 12.7851 17.2602 9.79771
1 11.9514 16.4997 9.80702
1 13.5732 17.3008 10.6067
1 14.3669 16.5071 10.6067
1 14.3122 17.3011 9.79575
1 13.5572 16.4989 9.79825
1 15 15.7134 10.6067
1 15.7937 14.9197 10.6067
1 15.8213 15.7061 9.82057
1 15.0761 14.9229 9.78774
1 16.5874 15.7134 10.6067
1 17.3811 14.9197 10.6067
1 17.3908 15.7106 9.77849
1 16.616 14.937 9.82563
1 18.1748 15.7134 10.6067
1 18.9685 14.9197 10.6067
1 18.938 15.7118 9.82061
1 18.1972 14.9411 9.81473
1 19.7622 15.7134 10.6067
1 20.5559 14.9197 10.6067
1 20.5578 15.7075 9.79628
1 19.7355 14.9198 9.80114
1 21.3496 15.7134 10.6067
1 22.1433 14.9197 10.6067
1 22.1437 15.7146 9.84096
1 21.38 14.9167 9.83848
1 22.937 15.7134 10.6067
1 23.7307 14.9197 10.6067
1 23.7393 15.7075 9.79637
1 22.9528 14.9152 9.82454
1 24.5244 15.7134 10.6067
1 25.3181 14.9197 10.6067
1 25.316 15.7306 9.81515
1 24.5019 14.9076 9.81712
1 26.1118 15.7134 10.6067
1 26.9055 14.9197 10.6067
1 26.9215 15.717 9.81688
1 26.115 14.8904 9.83858
1 27.6992 15.7134 10.6067
1 28.4929 14.9197 10.6067
1 28.4934 15.7041 9.81247
1 27.7071 14.9289 9.81938
1 29.2866 15.7134 10.6067
1 0.08031 14.9197 10.6067
1 0.0569672 15.6994 9.83081
1 29.2929 14.9217 9.81526
1 0.874011 15.7134 10.6067
1 1.66771 14.9197 10.6067
1 1.65815 15.6985 9.81709
1 0.840063 14.8816 9.82055
1 2.46141 15.7134 10.6067
1 3.25511 14.9197 10.6067
1 3.24728 15.7213 9.83826
1 2.46659 14.9173 9.80983
1 4.04881 15.7134 10.6067
1 4.84251 14.9197 10.6067
1 4.87009 15.7308 9.8127
1 4.0775 14.9471 9.80409
1 5.63621 15.7134 10.6067
1 6.42991 14.9197 10.6067
1 6.45339 15.7174 9.80862
1 5.62838 14.9211 9.82339
1 7.22361 15.7134 10.6067
1 8.01732 14.9197 10.6067
1 7.97376 15.7125 9.82032
1 7.25892 14.9293 9.81337
1 8.81102 15.7134 10.6067
1 9.60472 14.9197 10.6067
1 9.57709 15.684 9.8294
1 8.77535 14.9167 9.82833
1 10.3984 15.7134 10.6067
1 11.1921 14.9197 10.6067
1 11.1965 15.7228 9.81897
1 10.3859 14.9015 9.83124
1 11.9858 15.7134 10.6067
1 12.7795 14.9197 10.6067
1 12.7453 15.7209 9.78812
1 11.9898 14.9338 9.82342
1 13.5732 15.7134 10.6067
1 14.3669 14.9197 10.6067
1 14.3028 15.7047 9.78824
1 13.5439 14.9219 9.81024
1 15 14.126 10.6067
1 15.7937 13.3323 10.6067
1 15.849 14.131 9.81345
1 15.0738 13.3365 9.75991
1 16.5874 14.126 10.6067
1 17.3811 13.3323 10.6067
1 17.4052 14.1429 9.79992
1 16.6021 13.3296 9.79545
1 18.1748 14.126 10.6067
1 18.9685 13.3323 10.6067
1 18.9922 14.1188 9.82518
1 18.1814 13.3321 9.80218
1 19.7622 14.126 10.6067
1 20.5559 13.3323 10.6067
1 20.56 14.1212 9.81247
1 19.7729 13.3468 9.80628
1 21.3496 14.126 10.6067
1 22.1433 13.3323 10.6067
1 22.1617 14.1415 9.7949
1 21.3508 13.3289 9.7964
1 22.937 14.126 10.6067
1 23.7307 13.3323 10.6067
1 23.7232 14.0988 9.79761
1 22.9376 13.3577 9.80576
1 24.5244 14.126 10.6067
1 25.3181 13.3323 10.6067
1 25.3043 14.1142 9.80415
1 24.5438 13.3229 9.83188
1 26.1118 14.126 10.6067
1 26.9055 13.3323 10.6067
1 26.9096 14.1196 9.80467
1 26.0877 13.3454 9.79019
1 27.6992 14.126 10.6067
1 28.4929 13.3323 10.6067
1 28.4965 14.1304 9.78709
1 27.7001 13.3551 9.79128
1 29.2866 14.126 10.6067
1 0.08031 13.3323 10.6067
1 0.0814504 14.12 9.81111
1 29.2951 13.3423 9.80214
1 0.874011 14.126 10.6067
1 1.66771 13.3323 10.6067
1 1.69292 14.148 9.79434
1 0.88835 13.3668 9.82342
1 2.46141 14.126 10.6067
1 3.25511 13.3323 10.6067
1 3.26167 14.1393 9.77757
1 2.48088 13.3338 9.80478
1 4.04881 14.126 10.6067
1 4.84251 13.3323 10.6067
1 4.84956 14.1292 9.82959
1 4.06999 13.3542 9.79979
1 5.63621 14.126 10.6067
1 6.42991 13.3323 10.6067
1 6.41688 14.1338 9.83658
1 5.64764 13.3373 9.82827
1 7.22361 14.126 10.6067
1 8.01732 13.3323 10.6067
1 8.0003 14.1477 9.82143
1 7.23972 13.3392 9.85551
1 8.81102 14.126 10.6067
1 9.60472 13.3323 10.6067
1 9.60128 14.1446 9.84331
1 8.8006 13.3551 9.82473
1 10.3984 14.126 10.6067
1 11.1921 13.3323 10.6067
1 11.1918 14.127 9.79097
1 10.3992 13.3449 9.80853
1 11.9858 14.126 10.6067
1 12.7795 13.3323 10.6067
1 12.7506 14.147 9.7998
1 11.9595 13.3347 9.79104
1 13.5732 14.126 10.6067
1 14.3669 13.3323 10.6067
1 14.3134 14.107 9.79244
1 13.5281 13.3139 9.81033
1 15 12.5386 10.6067
1 15.7937 11.7449 10.6067
1 15.8246 12.5457 9.81202
1 15.0952 11.7348 9.78291
1 16.5874 12.5386 10.6067
1 17.3811 11.7449 10.6067
1 17.3906 12.5643 9.81428
1 16.6253 11.7467 9.83599
1 18.1748 12.5386 10.6067
1 18.9685 11.7449 10.6067
1 18.9742 12.5412 9.80209
1 18.1906 11.7356 9.80905
1 19.7622 12.5386 10.6067
1 20.5559 11.7449 10.6067
1 20.5759 12.5508 9.81186
1 19.7874 11.7452 9.82079
1 21.3496 12.5386 10.6067
1 22.1433 11.7449 10.6067
1 22.1323 12.548 9.83038
1 21.3864 11.7457 9.81993
1 22.937 12.5386 10.6067
1 23.7307 11.7449 10.6067
1 23.7465 12.5476 9.81147
1 22.9249 11.7349 9.82298
1 24.5244 12.5386 10.6067
1 25.3181 11.7449 10.6067
1 25.3129 12.557 9.82281
1 24.5113 11.7399 9.8108
1 26.1118 12.5386 10.6067
1 26.9055 11.7449 10.6067
1 26.9044 12.5382 9.81842
1 26.0993 11.7358 9.80524
1 27.6992 12.5386 10.6067
1 28.4929 11.7449 10.6067
1 28.4899 12.5226 9.80234
1 27.712 11.746 9.81216
1 29.2866 12.5386 10.6067
1 0.08031 11.7449 10.6067
1 0.0879933 12.5485 9.82067
1 29.2693 11.738 9.81793
1 0.874011 12.5386 10.6067
1 1.66771 11.7449 10.6067
1 1.64983 12.554 9.81153
1 0.85791 11.7348 9.79997
1 2.46141 12.5386 10.6067
1 3.25511 11.7449 10.6067
1 3.24922 12.5592 9.82455
1 2.47393 11.7341 9.83478
1 4.04881 12.5386 10.6067
1 4.84251 11.7449 10.6067
1 4.84397 12.5383 9.80202
1 4.0431 11.7404 9.82257
1 5.63621 12.5386 10.6067
1 6.42991 11.7449 10.6067
1 6.41909 12.5454 9.8038
1 5.6331 11.747 9.80247
1 7.22361 12.5386 10.6067
1 8.01732 11.7449 10.6067
1 8.00772 12.5438 9.82179
1 7.19814 11.7302 9.86205
1 8.81102 12.5386 10.6067
1 9.60472 11.7449 10.6067
1 9.60713 12.546 9.82932
1 8.80443 11.7778 9.81733
1 10.3984 12.5386 10.6067
1 11.1921 11.7449 10.6067
1 11.1993 12.5468 9.81361
1 10.3856 11.7483 9.82731
1 11.9858 12.5386 10.6067
1 12.7795 11.7449 10.6067
1 12.7563 12.5148 9.8211
1 11.9894 11.7313 9.81514
1 13.5732 12.5386 10.6067
1 14.3669 11.7449 10.6067
1 14.3265 12.5438 9.7603
1 13.5426 11.7553 9.80673
1 15 10.9512 10.6067
1 15.7937 10.1575 10.6067
1 15.8449 10.9543 9.79362
1 15.0479 10.1569 9.77425
1 16.5874 10.9512 10.6067
1 17.3811 10.1575 10.6067
1 17.4215 10.9386 9.81744
1 16.5858 10.1574 9.80164
1 18.1748 10.9512 10.6067
1 18.9685 10.1575 10.6067
1 18.9833 10.9491 9.83471
1 18.1943 10.1427 9.82745
1 19.7622 10.9512 10.6067
1 20.5559 10.1575 10.6067
1 20.5567 10.9486 9.8187
1 19.7727 10.1566 9.80403
1 21.3496 10.9512 10.6067
1 22.1433 10.1575 10.6067
1 22.1461 10.9507 9.7942
1 21.3631 10.1497 9.78563
1 22.937 10.9512 10.6067
1 23.7307 10.1575 10.6067
1 23.7189 10.9168 9.81343
1 22.9175 10.1432 9.79388
1 24.5244 10.9512 10.6067
1 25.3181 10.1575 10.6067
1 25.3187 10.9323 9.81112
1 24.5264 10.1497 9.8197
1 26.1118 10.9512 10.6067
1 26.9055 10.1575 10.6067
1 26.9132 10.9417 9.81259
1 26.1244 10.1568 9.7867
1 27.6992 10.9512 10.6067
1 28.4929 10.1575 10.6067
1 28.5073 10.9674 9.82583
1 27.7133 10.1668 9.83452
1 29.2866 10.9512 10.6067
1 0.08031 10.1575 10.6067
1 0.0692701 10.9423 9.81804
1 29.2967 10.1751 9.82117
1 0.874011 10.9512 10.6067
1 1.66771 10.1575 10.6067
1 1.65378 10.9477 9.80598
1 0.867136 10.152 9.83328
1 2.46141 10.9512 10.6067
1 3.25511 10.1575 10.6067
1 3.23729 10.9288 9.81961
1 2.46851 10.193 9.78275
1 4.04881 10.9512 10.6067
1 4.84251 10.1575 10.6067
1 4.84347 10.9585 9.80837
1 4.0389 10.1524 9.77982
1 5.63621 10.9512 10.6067
1 6.42991 10.1575 10.6067
1 6.42274 10.9194 9.8223
1 5.63187 10.1498 9.81094
1 7.22361 10.9512 10.6067
1 8.01732 10.1575 10.6067
1 8.03205 10.9424 9.82535
1 7.22468 10.1432 9.80484
1 8.81102 10.9512 10.6067
1 9.60472 10.1575 10.6067
1 9.61065 10.9292 9.83233
1 8.82426 10.1376 9.80127
1 10.3984 10.9512 10.6067
1 11.1921 10.1575 10.6067
1 11.1748 10.9635 9.82211
1 10.396 10.1551 9.8022
1 11.9858 10.9512 10.6067
1 12.7795 10.1575 10.6067
1 12.7748 10.9241 9.80666
1 11.9773 10.1428 9.81335
1 13.5732 10.9512 10.6067
1 14.3669 10.1575 10.6067
1 14.3002 10.9364 9.74445
1 13.5457 10.1347 9.78054
1 15 9.36379 10.6067
1 15.7937 8.57009 10.6067
1 15.8354 9.36711 9.80639
1 15.0729 8.57585 9.77113
1 16.5874 9.36379 10.6067
1 17.3811 8.57009 10.6067
1 17.3714 9.3718 9.83258
1 16.6241 8.56354 9.80192
1 18.1748 9.36379 10.6067
1 18.9685 8.57009 10.6067
1 18.971 9.3788 9.82647
1 18.16 8.53895 9.80664
1 19.7622 9.36379 10.6067
1 20.5559 8.57009 10.6067
1 20.5777 9.35183 9.80543
1 19.7866 8.55438 9.83083
1 21.3496 9.36379 10.6067
1 22.1433 8.57009 10.6067
1 22.1425 9.34854 9.77386
1 21.3719 8.56588 9.81917
1 22.937 9.36379 10.6067
1 23.7307 8.57009 10.6067
1 23.7459 9.36076 9.82204
1 22.9549 8.5519 9.7971
1 24.5244 9.36379 10.6067
1 25.3181 8.57009 10.6067
1 25.331 9.36861 9.81794
1 24.5377 8.57262 9.82487
1 26.1118 9.36379 10.6067
1 26.9055 8.57009 10.6067
1 26.9402 9.35009 9.82592
1 26.1069 8.56262 9.82339
1 27.6992 9.36379 10.6067
1 28.4929 8.57009 10.6067
1 28.5003 9.35769 9.81383
1 27.7363 8.55956 9.80638
1 29.2866 9.36379 10.6067
1 0.08031 8.57009 10.6067
1 0.0724598 9.3762 9.80964
1 29.2631 8.5516 9.82311
1 0.874011 9.36379 10.6067
1 1.66771 8.57009 10.6067
1 1.68679 9.38709 9.82157
1 0.879284 8.59665 9.78303
1 2.46141 9.36379 10.6067
1 3.25511 8.57009 10.6067
1 3.25939 9.35907 9.82558
1 2.46944 8.57848 9.81644
1 4.04881 9.36379 10.6067
1 4.84251 8.57009 10.6067
1 4.83849 9.37294 9.80426
1 4.06035 8.58346 9.80058
1 5.63621 9.36379 10.6067
1 6.42991 8.57009 10.6067
1 6.4507 9.36507 9.82159
1 5.63732 8.58951 9.79059
1 7.22361 9.36379 10.6067
1 8.01732 8.57009 10.6067
1 8.0063 9.36424 9.82046
1 7.22244 8.57182 9.8357
1 8.81102 9.36379 10.6067
1 9.60472 8.57009 10.6067
1 9.60994 9.32191 9.80877
1 8.79431 8.57818 9.8164
1 10.3984 9.36379 10.6067
1 11.1921 8.57009 10.6067
1 11.214 9.35599 9.80585
1 10.4016 8.56542 9.83059
1 11.9858 9.36379 10.6067
1 12.7795 8.57009 10.6067
1 12.7629 9.36936 9.7983
1 11.9891 8.55462 9.81513
1 13.5732 9.36379 10.6067
1 14.3669 8.57009 10.6067
1 14.3054 9.37349 9.77401
1 13.5639 8.59177 9.7906
1 15 7.77639 10.6067
1 15.7937 6.98268 10.6067
1 15.8168 7.78636 9.80911
1 15.0857 6.97782 9.7826
1 16.5874 7.77639 10.6067
1 17.3811 6.98268 10.6067
1 17.3685 7.76219 9.79907
1 16.5926 6.95324 9.82327
1 18.1748 7.77639 10.6067
1 18.9685 6.98268 10.6067
1 18.9658 7.78454 9.80759
1 18.1718 6.97926 9.80995
1 19.7622 7.77639 10.6067
1 20.5559 6.98268 10.6067
1 20.5809 7.80033 9.80591
1 19.7779 6.98952 9.80517
1 21.3496 7.77639 10.6067
1 22.1433 6.98268 10.6067
1 22.1654 7.76661 9.80237
1 21.3555 6.98265 9.82832
1 22.937 7.77639 10.6067
1 23.7307 6.98268 10.6067
1 23.7559 7.78402 9.81425
1 22.9696 6.96521 9.79712
1 24.5244 7.77639 10.6067
1 25.3181 6.98268 10.6067
1 25.3137 7.7782 9.83297
1 24.5252 6.98331 9.80628
1 26.1118 7.77639 10.6067
1 26.9055 6.98268 10.6067
1 26.9168 7.78003 9.79829
1 26.1198 6.97616 9.81699
1 27.6992 7.77639 10.6067
1 28.4929 6.98268 10.6067
1 28.4953 7.761 9.80954
1 27.7054 6.99943 9.78582
1 29.2866 7.77639 10.6067
1 0.08031 6.98268 10.6067
1 0.0589092 7.80486 9.8048
1 29.3053 6.9832 9.81804
1 0.874011 7.77639 10.6067
1 1.66771 6.98268 10.6067
1 1.66472 7.78607 9.81552
1 0.843369 6.99446 9.81593
1 2.46141 7.77639 10.6067
1 3.25511 6.98268 10.6067
1 3.25578 7.77648 9.81217
1 2.47362 6.9822 9.83391
1 4.04881 7.77639 10.6067
1 4.84251 6.98268 10.6067
1 4.83056 7.7803 9.79846
1 4.05549 7.00969 9.79223
1 5.63621 7.77639 10.6067
1 6.42991 6.98268 10.6067
1 6.44345 7.79076 9.82238
1 5.63029 6.99715 9.81498
1 7.22361 7.77639 10.6067
1 8.01732 6.98268 10.6067
1 8.00636 7.78209 9.81521
1 7.20785 6.99934 9.80752
1 8.81102 7.77639 10.6067
1 9.60472 6.98268 10.6067
1 9.59145 7.78793 9.81113
1 8.80505 6.99015 9.80592
1 10.3984 7.77639 10.6067
1 11.1921 6.98268 10.6067
1 11.1762 7.7317 9.81098
1 10.3898 6.99594 9.79977
1 11.9858 7.77639 10.6067
1 12.7795 6.98268 10.6067
1 12.7711 7.77752 9.8142
1 12.0139 6.98297 9.84055
1 13.5732 7.77639 10.6067
1 14.3669 6.98268 10.6067
1 14.3129 7.79948 9.76
1 13.5611 6.99262 9.81083
1 15 6.18898 10.6067
1 15.7937 5.39528 10.6067
1 15.8243 6.18629 9.8058
1 15.0704 5.38693 9.77522
1 16.5874 6.18898 10.6067
1 17.3811 5.39528 10.6067
1 17.3732 6.20191 9.81996
1 16.6189 5.40006 9.79994
1 18.1748 6.18898 10.6067
1 18.9685 5.39528 10.6067
1 18.9728 6.17335 9.81865
1 18.1698 5.37174 9.81336
1 19.7622 6.18898 10.6067
1 20.5559 5.39528 10.6067
1 20.5623 6.20841 9.79566
1 19.7752 5.41816 9.82661
1 21.3496 6.18898 10.6067
1 22.1433 5.39528 10.6067
1 22.1219 6.20889 9.81176
1 21.3582 5.40897 9.82046