9376
Atoms. Timestep: 4000000
1 0.75 3.55271e-15 10.5749
1 1.5437 29.2063 10.5749
1 1.57756 29.9131 9.74132
1 0.831352 29.1792 9.73201
1 2.3374 3.55271e-15 10.5749
1 3.1311 29.2063 10.5749
1 3.14168 29.9049 9.7256
1 2.31767 29.1653 9.80766
1 3.9248 3.55271e-15 10.5749
1 4.7185 29.2063 10.5749
1 4.72018 29.9389 9.75919
1 3.91655 29.2003 9.7568
1 5.5122 3.55271e-15 10.5749
1 6.3059 29.2063 10.5749
1 6.30789 29.9251 9.75202
1 5.5065 29.1917 9.78145
1 7.0996 3.55271e-15 10.5749
1 7.8933 29.2063 10.5749
1 7.89653 29.9266 9.73822
1 7.1072 29.17 9.78148
1 8.68701 3.55271e-15 10.5749
1 9.48071 29.2063 10.5749
1 9.46641 29.953 9.72511
1 8.68116 29.165 9.78138
1 10.2744 3.55271e-15 10.5749
1 11.0681 29.2063 10.5749
1 11.0684 29.9377 9.73517
1 10.2347 29.1884 9.78926
1 11.8618 3.55271e-15 10.5749
1 12.6555 29.2063 10.5749
1 12.6285 29.9292 9.74381
1 11.8514 29.1832 9.76611
1 13.4492 3.55271e-15 10.5749
1 14.2429 29.2063 10.5749
1 14.2496 29.928 9.74847
1 13.4267 29.1801 9.75294
1 15.0366 3.55271e-15 10.5749
1 15.8303 29.2063 10.5749
1 15.8443 29.9239 9.7504
1 15.0361 29.165 9.76611
1 16.624 3.55271e-15 10.5749
1 17.4177 29.2063 10.5749
1 17.4162 29.9402 9.73381
1 16.6353 29.1575 9.76173
1 18.2114 3.55271e-15 10.5749
1 19.0051 29.2063 10.5749
1 19.0025 29.9333 9.7681
1 18.2014 29.183 9.76289
1 19.7988 3.55271e-15 10.5749
1 20.5925 29.2063 10.5749
1 20.5922 29.9511 9.74481
1 19.8068 29.1803 9.76476
1 21.3862 3.55271e-15 10.5749
1 22.1799 29.2063 10.5749
1 22.1905 29.9219 9.76113
1 21.3813 29.1875 9.78354
1 22.9736 3.55271e-15 10.5749
1 23.7673 29.2063 10.5749
1 23.774 29.9086 9.75429
1 22.9669 29.178 9.76628
1 24.561 3.55271e-15 10.5749
1 25.3547 29.2063 10.5749
1 25.3726 29.9489 9.72566
1 24.5758 29.1643 9.77344
1 26.1484 3.55271e-15 10.5749
1 26.9421 29.2063 10.5749
1 26.9385 29.9067 9.76006
1 26.1445 29.1619 9.77161
1 27.7358 3.55271e-15 10.5749
1 28.5295 29.2063 10.5749
1 28.5195 29.9348 9.75725
1 27.7202 29.1909 9.78468
1 29.3232 3.55271e-15 10.5749
1 0.116919 29.2063 10.5749
1 0.0636298 29.9339 9.70109
1 29.3015 29.1922 9.76343
1 0.75 28.4126 10.5749
1 1.5437 27.6189 10.5749
1 1.57835 28.3811 9.79898
1 0.811082 27.6213 9.74042
1 2.3374 28.4126 10.5749
1 3.1311 27.6189 10.5749
1 3.13906 28.3867 9.78773
1 2.37606 27.6252 9.77683
1 3.9248 28.4126 10.5749
1 4.7185 27.6189 10.5749
1 4.71615 28.3896 9.78127
1 3.92477 27.5936 9.78484
1 5.5122 28.4126 10.5749
1 6.3059 27.6189 10.5749
1 6.29224 28.3882 9.80896
1 5.51127 27.6062 9.81901
1 7.0996 28.4126 10.5749
1 7.8933 27.6189 10.5749
1 7.90337 28.4108 9.785
1 7.10218 27.629 9.80977
1 8.68701 28.4126 10.5749
1 9.48071 27.6189 10.5749
1 9.47833 28.4032 9.77485
1 8.71234 27.6149 9.76926
1 10.2744 28.4126 10.5749
1 11.0681 27.6189 10.5749
1 11.0717 28.3982 9.7727
1 10.2981 27.6191 9.78568
1 11.8618 28.4126 10.5749
1 12.6555 27.6189 10.5749
1 12.6501 28.3982 9.76912
1 11.8556 27.5756 9.78903
1 13.4492 28.4126 10.5749
1 14.2429 27.6189 10.5749
1 14.225 28.3888 9.76497
1 13.4436 27.6053 9.75912
1 15.0366 28.4126 10.5749
1 15.8303 27.6189 10.5749
1 15.8108 28.4088 9.78148
1 15.0479 27.6215 9.80076
1 16.624 28.4126 10.5749
1 17.4177 27.6189 10.5749
1 17.4239 28.3855 9.75757
1 16.6295 27.6055 9.78406
1 18.2114 28.4126 10.5749
1 19.0051 27.6189 10.5749
1 19.0105 28.4133 9.79507
1 18.2128 27.6077 9.77597
1 19.7988 28.4126 10.5749
1 20.5925 27.6189 10.5749
1 20.5883 28.3899 9.77213
1 19.7938 27.566 9.79481
1 21.3862 28.4126 10.5749
1 22.1799 27.6189 10.5749
1 22.168 28.3504 9.77593
1 21.3767 27.5944 9.80075
1 22.9736 28.4126 10.5749
1 23.7673 27.6189 10.5749
1 23.7801 28.4064 9.75478
1 22.9811 27.6146 9.7711
1 24.561 28.4126 10.5749
1 25.3547 27.6189 10.5749
1 25.3388 28.4017 9.81509
1 24.5917 27.6188 9.78321
1 26.1484 28.4126 10.5749
1 26.9421 27.6189 10.5749
1 26.9397 28.4066 9.80495
1 26.1283 27.6301 9.79546
1 27.7358 28.4126 10.5749
1 28.5295 27.6189 10.5749
1 28.5169 28.4024 9.75858
1 27.7112 27.6131 9.76589
1 29.3232 28.4126 10.5749
1 0.116919 27.6189 10.5749
1 0.0573927 28.396 9.74595
1 29.3046 27.5914 9.77431
1 0.75 26.8252 10.5749
1 1.5437 26.0315 10.5749
1 1.54511 26.8523 9.77179
1 0.806039 26.0363 9.75177
1 2.3374 26.8252 10.5749
1 3.1311 26.0315 10.5749
1 3.1384 26.8223 9.79438
1 2.34425 26.057 9.79154
1 3.9248 26.8252 10.5749
1 4.7185 26.0315 10.5749
1 4.73986 26.8202 9.78615
1 3.91785 26.0128 9.77928
1 5.5122 26.8252 10.5749
1 6.3059 26.0315 10.5749
1 6.31897 26.8469 9.78737
1 5.5136 26.0286 9.75831
1 7.0996 26.8252 10.5749
1 7.8933 26.0315 10.5749
1 7.88975 26.8365 9.80206
1 7.07232 26.041 9.79231
1 8.68701 26.8252 10.5749
1 9.48071 26.0315 10.5749
1 9.5108 26.8202 9.77484
1 8.702 26.0497 9.79818
1 10.2744 26.8252 10.5749
1 11.0681 26.0315 10.5749
1 11.0519 26.8046 9.75528
1 10.2719 25.9996 9.7773
1 11.8618 26.8252 10.5749
1 12.6555 26.0315 10.5749
1 12.6471 26.8226 9.78683
1 11.8469 26.0052 9.77699
1 13.4492 26.8252 10.5749
1 14.2429 26.0315 10.5749
1 14.2354 26.8294 9.78977
1 13.4498 26.037 9.79171
1 15.0366 26.8252 10.5749
1 15.8303 26.0315 10.5749
1 15.8371 26.8251 9.77862
1 15.0425 26.0172 9.75131
1 16.624 26.8252 10.5749
1 17.4177 26.0315 10.5749
1 17.4376 26.8089 9.78806
1 16.6286 26.0233 9.79138
1 18.2114 26.8252 10.5749
1 19.0051 26.0315 10.5749
1 19.0086 26.823 9.79157
1 18.2042 25.9917 9.78543
1 19.7988 26.8252 10.5749
1 20.5925 26.0315 10.5749
1 20.5846 26.8002 9.78253
1 19.792 26.0401 9.79925
1 21.3862 26.8252 10.5749
1 22.1799 26.0315 10.5749
1 22.1719 26.8173 9.79914
1 21.3926 26.0169 9.79978
1 22.9736 26.8252 10.5749
1 23.7673 26.0315 10.5749
1 23.7751 26.8202 9.79233
1 22.9832 26.0292 9.77367
1 24.561 26.8252 10.5749
1 25.3547 26.0315 10.5749
1 25.3277 26.7981 9.80237
1 24.5704 26.0325 9.8081
1 26.1484 26.8252 10.5749
1 26.9421 26.0315 10.5749
1 26.924 26.7883 9.78544
1 26.1357 26.0281 9.8024
1 27.7358 26.8252 10.5749
1 28.5295 26.0315 10.5749
1 28.5073 26.8035 9.78257
1 27.7166 26.02 9.78302
1 29.3232 26.8252 10.5749
1 0.116919 26.0315 10.5749
1 0.0299553 26.8416 9.75362
1 29.269 26.0325 9.78444
1 0.75 25.2378 10.5749
1 1.5437 24.4441 10.5749
1 1.57474 25.2415 9.78333
1 0.830253 24.405 9.74901
1 2.3374 25.2378 10.5749
1 3.1311 24.4441 10.5749
1 3.13637 25.2532 9.78066
1 2.34983 24.4418 9.7766
1 3.9248 25.2378 10.5749
1 4.7185 24.4441 10.5749
1 4.71391 25.2425 9.77175
1 3.93998 24.4414 9.7961
1 5.5122 25.2378 10.5749
1 6.3059 24.4441 10.5749
1 6.28367 25.2396 9.81602
1 5.5169 24.4535 9.81373
1 7.0996 25.2378 10.5749
1 7.8933 24.4441 10.5749
1 7.91183 25.2611 9.77878
1 7.11819 24.4536 9.78813
1 8.68701 25.2378 10.5749
1 9.48071 24.4441 10.5749
1 9.49794 25.2376 9.76704
1 8.69426 24.4346 9.80626
1 10.2744 25.2378 10.5749
1 11.0681 24.4441 10.5749
1 11.0729 25.2114 9.77509
1 10.2817 24.4274 9.7771
1 11.8618 25.2378 10.5749
1 12.6555 24.4441 10.5749
1 12.6745 25.2258 9.7877
1 11.8856 24.4337 9.79249
1 13.4492 25.2378 10.5749
1 14.2429 24.4441 10.5749
1 14.2516 25.2299 9.77889
1 13.4586 24.4172 9.7786
1 15.0366 25.2378 10.5749
1 15.8303 24.4441 10.5749
1 15.8112 25.249 9.80045
1 15.0235 24.4511 9.76619
1 16.624 25.2378 10.5749
1 17.4177 24.4441 10.5749
1 17.3993 25.2578 9.77855
1 16.6097 24.4408 9.79327
1 18.2114 25.2378 10.5749
1 19.0051 24.4441 10.5749
1 19.0205 25.2301 9.75537
1 18.2015 24.4544 9.78772
1 19.7988 25.2378 10.5749
1 20.5925 24.4441 10.5749
1 20.5408 25.2348 9.78477
1 19.7947 24.4256 9.7717
1 21.3862 25.2378 10.5749
1 22.1799 24.4441 10.5749
1 22.1854 25.2188 9.75639
1 21.3937 24.4447 9.78528
1 22.9736 25.2378 10.5749
1 23.7673 24.4441 10.5749
1 23.767 25.2462 9.76695
1 22.9771 24.4283 9.7787
1 24.561 25.2378 10.5749
1 25.3547 24.4441 10.5749
1 25.3623 25.259 9.76275
1 24.5793 24.4496 9.76078
1 26.1484 25.2378 10.5749
1 26.9421 24.4441 10.5749
1 26.9235 25.2315 9.76411
1 26.1436 24.4668 9.75813
1 27.7358 25.2378 10.5749
1 28.5295 24.4441 10.5749
1 28.4983 25.2232 9.77402
1 27.7225 24.4204 9.78622
1 29.3232 25.2378 10.5749
1 0.116919 24.4441 10.5749
1 0.0332286 25.2498 9.75709
1 29.2957 24.4382 9.75672
1 0.75 23.6504 10.5749
1 1.5437 22.8567 10.5749
1 1.56871 23.6321 9.78816
1 0.79351 22.8736 9.7528
1 2.3374 23.6504 10.5749
1 3.1311 22.8567 10.5749
1 3.13419 23.6512 9.78309
1 2.33541 22.8425 9.78211
1 3.9248 23.6504 10.5749
1 4.7185 22.8567 10.5749
1 4.71797 23.6774 9.80032
1 3.94745 22.8508 9.75702
1 5.5122 23.6504 10.5749
1 6.3059 22.8567 10.5749
1 6.30679 23.648 9.78131
1 5.53092 22.8542 9.79233
1 7.0996 23.6504 10.5749
1 7.8933 22.8567 10.5749
1 7.88837 23.6366 9.77459
1 7.10646 22.852 9.77399
1 8.68701 23.6504 10.5749
1 9.48071 22.8567 10.5749
1 9.48767 23.6425 9.80311
1 8.67304 22.8639 9.77504
1 10.2744 23.6504 10.5749
1 11.0681 22.8567 10.5749
1 11.0646 23.6458 9.78036
1 10.2712 22.8439 9.77094
1 11.8618 23.6504 10.5749
1 12.6555 22.8567 10.5749
1 12.6665 23.6503 9.76264
1 11.8536 22.8638 9.77661
1 13.4492 23.6504 10.5749
1 14.2429 22.8567 10.5749
1 14.2483 23.6574 9.79392
1 13.4592 22.8534 9.773
1 15.0366 23.6504 10.5749
1 15.8303 22.8567 10.5749
1 15.8387 23.6543 9.80021
1 15.0137 22.8472 9.77761
1 16.624 23.6504 10.5749
1 17.4177 22.8567 10.5749
1 17.4003 23.6404 9.77298
1 16.5985 22.8612 9.80259
1 18.2114 23.6504 10.5749
1 19.0051 22.8567 10.5749
1 18.9993 23.6496 9.76727
1 18.2028 22.845 9.78094
1 19.7988 23.6504 10.5749
1 20.5925 22.8567 10.5749
1 20.5939 23.65 9.77919
1 19.7946 22.8425 9.80786
1 21.3862 23.6504 10.5749
1 22.1799 22.8567 10.5749
1 22.2166 23.6411 9.7859
1 21.3683 22.8635 9.77518
1 22.9736 23.6504 10.5749
1 23.7673 22.8567 10.5749
1 23.7658 23.6504 9.78889
1 22.9734 22.8423 9.76938
1 24.561 23.6504 10.5749
1 25.3547 22.8567 10.5749
1 25.358 23.6596 9.76948
1 24.576 22.8597 9.80123
1 26.1484 23.6504 10.5749
1 26.9421 22.8567 10.5749
1 26.9377 23.662 9.76872
1 26.1251 22.8574 9.78923
1 27.7358 23.6504 10.5749
1 28.5295 22.8567 10.5749
1 28.513 23.6454 9.77582
1 27.7539 22.8707 9.80815
1 29.3232 23.6504 10.5749
1 0.116919 22.8567 10.5749
1 0.0588484 23.644 9.7539
1 29.3105 22.8462 9.80007
1 0.75 22.063 10.5749
1 1.5437 21.2693 10.5749
1 1.54897 22.0635 9.79117
1 0.814786 21.2727 9.74353
1 2.3374 22.063 10.5749
1 3.1311 21.2693 10.5749
1 3.12241 22.0798 9.78537
1 2.35121 21.2638 9.75291
1 3.9248 22.063 10.5749
1 4.7185 21.2693 10.5749
1 4.73072 22.0761 9.77398
1 3.92597 21.2709 9.77644
1 5.5122 22.063 10.5749
1 6.3059 21.2693 10.5749
1 6.30386 22.0562 9.78932
1 5.49395 21.2644 9.79584
1 7.0996 22.063 10.5749
1 7.8933 21.2693 10.5749
1 7.91178 22.0619 9.8088
1 7.10577 21.2664 9.77449
1 8.68701 22.063 10.5749
1 9.48071 21.2693 10.5749
1 9.46281 22.0377 9.78391
1 8.69188 21.2475 9.77113
1 10.2744 22.063 10.5749
1 11.0681 21.2693 10.5749
1 11.0595 22.0666 9.7843
1 10.274 21.2556 9.78151
1 11.8618 22.063 10.5749
1 12.6555 21.2693 10.5749
1 12.6566 22.0831 9.77572
1 11.8541 21.2624 9.78991
1 13.4492 22.063 10.5749
1 14.2429 21.2693 10.5749
1 14.2314 22.0426 9.77376
1 13.4311 21.276 9.78008
1 15.0366 22.063 10.5749
1 15.8303 21.2693 10.5749
1 15.82 22.0596 9.76373
1 15.0396 21.2732 9.77736
1 16.624 22.063 10.5749
1 17.4177 21.2693 10.5749
1 17.3978 22.0624 9.80231
1 16.6235 21.2668 9.78811
1 18.2114 22.063 10.5749
1 19.0051 21.2693 10.5749
1 18.9925 22.0426 9.78712
1 18.1815 21.2379 9.78921
1 19.7988 22.063 10.5749
1 20.5925 21.2693 10.5749
1 20.5955 22.0735 9.77669
1 19.7989 21.2543 9.81384
1 21.3862 22.063 10.5749
1 22.1799 21.2693 10.5749
1 22.1732 22.0776 9.77048
1 21.3912 21.2557 9.78174
1 22.9736 22.063 10.5749
1 23.7673 21.2693 10.5749
1 23.7785 22.046 9.79704
1 22.9866 21.2922 9.79154
1 24.561 22.063 10.5749
1 25.3547 21.2693 10.5749
1 25.3471 22.0432 9.78306
1 24.5679 21.2771 9.76977
1 26.1484 22.063 10.5749
1 26.9421 21.2693 10.5749
1 26.9288 22.0663 9.77151
1 26.1255 21.2534 9.78527
1 27.7358 22.063 10.5749
1 28.5295 21.2693 10.5749
1 28.518 22.0565 9.7718
1 27.7422 21.2572 9.79259
1 29.3232 22.063 10.5749
1 0.116919 21.2693 10.5749
1 0.0396996 22.0453 9.75607
1 29.2798 21.2721 9.75369
1 0.75 20.4756 10.5749
1 1.5437 19.6819 10.5749
1 1.55982 20.4488 9.75831
1 0.80958 19.6937 9.75042
1 2.3374 20.4756 10.5749
1 3.1311 19.6819 10.5749
1 3.13047 20.46 9.78491
1 2.35818 19.6616 9.75899
1 3.9248 20.4756 10.5749
1 4.7185 19.6819 10.5749
1 4.71193 20.4592 9.77415
1 3.94373 19.6669 9.79297
1 5.5122 20.4756 10.5749
1 6.3059 19.6819 10.5749
1 6.31337 20.4673 9.78389
1 5.52282 19.6898 9.78879
1 7.0996 20.4756 10.5749
1 7.8933 19.6819 10.5749
1 7.89674 20.4659 9.79099
1 7.1019 19.6922 9.7842
1 8.68701 20.4756 10.5749
1 9.48071 19.6819 10.5749
1 9.48296 20.4683 9.77773
1 8.66922 19.6786 9.79406
1 10.2744 20.4756 10.5749
1 11.0681 19.6819 10.5749
1 11.0603 20.4729 9.80065
1 10.2759 19.6622 9.78996
1 11.8618 20.4756 10.5749
1 12.6555 19.6819 10.5749
1 12.6552 20.4784 9.7662
1 11.8565 19.7026 9.78377
1 13.4492 20.4756 10.5749
1 14.2429 19.6819 10.5749
1 14.255 20.4923 9.7854
1 13.4277 19.7002 9.77165
1 15.0366 20.4756 10.5749
1 15.8303 19.6819 10.5749
1 15.8239 20.4739 9.75276
1 15.0221 19.6839 9.78663
1 16.624 20.4756 10.5749
1 17.4177 19.6819 10.5749
1 17.4081 20.4509 9.78635
1 16.6161 19.6591 9.77646
1 18.2114 20.4756 10.5749
1 19.0051 19.6819 10.5749
1 19.0104 20.4786 9.77515
1 18.208 19.6951 9.76613
1 19.7988 20.4756 10.5749
1 20.5925 19.6819 10.5749
1 20.5832 20.4693 9.79763
1 19.791 19.6841 9.78629
1 21.3862 20.4756 10.5749
1 22.1799 19.6819 10.5749
1 22.1741 20.4649 9.77093
1 21.3707 19.6968 9.77105
1 22.9736 20.4756 10.5749
1 23.7673 19.6819 10.5749
1 23.7572 20.4821 9.79908
1 22.9812 19.6928 9.78077
1 24.561 20.4756 10.5749
1 25.3547 19.6819 10.5749
1 25.3477 20.4705 9.79397
1 24.5598 19.6959 9.78224
1 26.1484 20.4756 10.5749
1 26.9421 19.6819 10.5749
1 26.9179 20.4826 9.78009
1 26.1313 19.6603 9.79366
1 27.7358 20.4756 10.5749
1 28.5295 19.6819 10.5749
1 28.506 20.4892 9.77584
1 27.7189 19.693 9.78464
1 29.3232 20.4756 10.5749
1 0.116919 19.6819 10.5749
1 0.0467929 20.4915 9.75183
1 29.2787 19.6989 9.76824
1 0.75 18.8882 10.5749
1 1.5437 18.0945 10.5749
1 1.55184 18.8877 9.75887
1 0.811899 18.1008 9.73231
1 2.3374 18.8882 10.5749
1 3.1311 18.0945 10.5749
1 3.16166 18.8935 9.77191
1 2.36843 18.125 9.79236
1 3.9248 18.8882 10.5749
1 4.7185 18.0945 10.5749
1 4.74037 18.874 9.79791
1 3.94012 18.0953 9.76411
1 5.5122 18.8882 10.5749
1 6.3059 18.0945 10.5749
1 6.31627 18.9168 9.77234
1 5.52098 18.1102 9.78935
1 7.0996 18.8882 10.5749
1 7.8933 18.0945 10.5749
1 7.90611 18.8795 9.78958
1 7.11724 18.1221 9.7756
1 8.68701 18.8882 10.5749
1 9.48071 18.0945 10.5749
1 9.44908 18.8981 9.80013
1 8.68627 18.0724 9.76267
1 10.2744 18.8882 10.5749
1 11.0681 18.0945 10.5749
1 11.0649 18.8737 9.79955
1 10.2814 18.1146 9.78694
1 11.8618 18.8882 10.5749
1 12.6555 18.0945 10.5749
1 12.6656 18.8749 9.77876
1 11.8502 18.0957 9.78329
1 13.4492 18.8882 10.5749
1 14.2429 18.0945 10.5749
1 14.2761 18.8969 9.74287
1 13.4461 18.1018 9.78871
1 15.0366 18.8882 10.5749
1 15.8303 18.0945 10.5749
1 15.8309 18.8858 9.77507
1 15.0371 18.0814 9.74935
1 16.624 18.8882 10.5749
1 17.4177 18.0945 10.5749
1 17.429 18.884 9.75872
1 16.6084 18.1035 9.7551
1 18.2114 18.8882 10.5749
1 19.0051 18.0945 10.5749
1 18.9924 18.8984 9.78009
1 18.2077 18.1097 9.77809
1 19.7988 18.8882 10.5749
1 20.5925 18.0945 10.5749
1 20.5906 18.8927 9.79768
1 19.8098 18.0938 9.78716
1 21.3862 18.8882 10.5749
1 22.1799 18.0945 10.5749
1 22.1555 18.875 9.77779
1 21.3519 18.0915 9.79043
1 22.9736 18.8882 10.5749
1 23.7673 18.0945 10.5749
1 23.7788 18.898 9.76666
1 22.9724 18.0901 9.77865
1 24.561 18.8882 10.5749
1 25.3547 18.0945 10.5749
1 25.366 18.9027 9.77835
1 24.5672 18.0883 9.78118
1 26.1484 18.8882 10.5749
1 26.9421 18.0945 10.5749
1 26.93 18.8727 9.77416
1 26.1463 18.0883 9.78573
1 27.7358 18.8882 10.5749
1 28.5295 18.0945 10.5749
1 28.5337 18.8893 9.7772
1 27.7466 18.1129 9.77322
1 29.3232 18.8882 10.5749
1 0.116919 18.0945 10.5749
1 0.071347 18.881 9.74476
1 29.2805 18.0796 9.78676
1 0.75 17.3008 10.5749
1 1.5437 16.5071 10.5749
1 1.60213 17.3216 9.76964
1 0.824145 16.5255 9.77125
1 2.3374 17.3008 10.5749
1 3.1311 16.5071 10.5749
1 3.12574 17.3128 9.77239
1 2.37676 16.4951 9.75454
1 3.9248 17.3008 10.5749
1 4.7185 16.5071 10.5749
1 4.72309 17.3169 9.80332
1 3.91377 16.5179 9.78642
1 5.5122 17.3008 10.5749
1 6.3059 16.5071 10.5749
1 6.3173 17.3225 9.77908
1 5.52236 16.5216 9.7879
1 7.0996 17.3008 10.5749
1 7.8933 16.5071 10.5749
1 7.87338 17.3164 9.78673
1 7.08679 16.5196 9.79305
1 8.68701 17.3008 10.5749
1 9.48071 16.5071 10.5749
1 9.46558 17.3241 9.77125
1 8.69235 16.5304 9.77039
1 10.2744 17.3008 10.5749
1 11.0681 16.5071 10.5749
1 11.0603 17.3105 9.77199
1 10.2522 16.5321 9.78541
1 11.8618 17.3008 10.5749
1 12.6555 16.5071 10.5749
1 12.6466 17.2956 9.78118
1 11.8462 16.5174 9.78372
1 13.4492 17.3008 10.5749
1 14.2429 16.5071 10.5749
1 14.2428 17.322 9.79912
1 13.457 16.5058 9.78098
1 15.0366 17.3008 10.5749
1 15.8303 16.5071 10.5749
1 15.8229 17.3088 9.78145
1 15.0443 16.4939 9.76775
1 16.624 17.3008 10.5749
1 17.4177 16.5071 10.5749
1 17.4214 17.2823 9.78055
1 16.6058 16.5087 9.78815
1 18.2114 17.3008 10.5749
1 19.0051 16.5071 10.5749
1 18.9845 17.3004 9.74657
1 18.2151 16.489 9.77257
1 19.7988 17.3008 10.5749
1 20.5925 16.5071 10.5749
1 20.5645 17.3027 9.7804
1 19.7955 16.5055 9.75835
1 21.3862 17.3008 10.5749
1 22.1799 16.5071 10.5749
1 22.1759 17.2847 9.79382
1 21.3884 16.5316 9.79821
1 22.9736 17.3008 10.5749
1 23.7673 16.5071 10.5749
1 23.7412 17.2962 9.8032
1 22.9925 16.5014 9.77384
1 24.561 17.3008 10.5749
1 25.3547 16.5071 10.5749
1 25.3771 17.2698 9.7785
1 24.5486 16.5123 9.7679
1 26.1484 17.3008 10.5749
1 26.9421 16.5071 10.5749
1 26.9578 17.3075 9.78529
1 26.1971 16.483 9.78693
1 27.7358 17.3008 10.5749
1 28.5295 16.5071 10.5749
1 28.5157 17.2947 9.7799
1 27.7267 16.5119 9.77835
1 29.3232 17.3008 10.5749
1 0.116919 16.5071 10.5749
1 0.0361073 17.3177 9.74744
1 29.285 16.5008 9.77181
1 0.75 15.7134 10.5749
1 1.5437 14.9197 10.5749
1 1.58004 15.7257 9.78529
1 0.834149 14.9392 9.72707
1 2.3374 15.7134 10.5749
1 3.1311 14.9197 10.5749
1 3.15613 15.7137 9.77896
1 2.34941 14.9314 9.7756
1 3.9248 15.7134 10.5749
1 4.7185 14.9197 10.5749
1 4.72753 15.7112 9.76183
1 3.91597 14.9033 9.79951
1 5.5122 15.7134 10.5749
1 6.3059 14.9197 10.5749
1 6.28395 15.7279 9.78237
1 5.50507 14.919 9.76722
1 7.0996 15.7134 10.5749
1 7.8933 14.9197 10.5749
1 7.87715 15.7107 9.77203
1 7.08661 14.9029 9.78081
1 8.68701 15.7134 10.5749
1 9.48071 14.9197 10.5749
1 9.46472 15.7305 9.75613
1 8.68756 14.9077 9.77347
1 10.2744 15.7134 10.5749
1 11.0681 14.9197 10.5749
1 11.0358 15.7146 9.78633
1 10.2651 14.9164 9.78234
1 11.8618 15.7134 10.5749
1 12.6555 14.9197 10.5749
1 12.6412 15.7133 9.77471
1 11.8509 14.9164 9.79084
1 13.4492 15.7134 10.5749
1 14.2429 14.9197 10.5749
1 14.2393 15.6912 9.77818
1 13.4364 14.8893 9.77665
1 15.0366 15.7134 10.5749
1 15.8303 14.9197 10.5749
1 15.8291 15.7035 9.79013
1 15.0294 14.947 9.78448
1 16.624 15.7134 10.5749
1 17.4177 14.9197 10.5749
1 17.4419 15.7238 9.77084
1 16.6138 14.929 9.79795
1 18.2114 15.7134 10.5749
1 19.0051 14.9197 10.5749
1 19.0086 15.7239 9.76649
1 18.2104 14.9024 9.79279
1 19.7988 15.7134 10.5749
1 20.5925 14.9197 10.5749
1 20.5982 15.7258 9.78585
1 19.7894 14.9299 9.79958
1 21.3862 15.7134 10.5749
1 22.1799 14.9197 10.5749
1 22.178 15.7204 9.77256
1 21.3885 14.9149 9.76988
1 22.9736 15.7134 10.5749
1 23.7673 14.9197 10.5749
1 23.757 15.6955 9.79299
1 22.9644 14.9001 9.80537
1 24.561 15.7134 10.5749
1 25.3547 14.9197 10.5749
1 25.3533 15.7062 9.79286
1 24.5524 14.9126 9.77254
1 26.1484 15.7134 10.5749
1 26.9421 14.9197 10.5749
1 26.9375 15.6761 9.75002
1 26.1562 14.8956 9.77733
1 27.7358 15.7134 10.5749
1 28.5295 14.9197 10.5749
1 28.5148 15.7025 9.75653
1 27.7279 14.9179 9.75934
1 29.3232 15.7134 10.5749
1 0.116919 14.9197 10.5749
1 0.0366266 15.7387 9.7553
1 29.2829 14.933 9.78276
1 0.75 14.126 10.5749
1 1.5437 13.3323 10.5749
1 1.58841 14.1201 9.75938
1 0.8293 13.3539 9.75773
1 2.3374 14.126 10.5749
1 3.1311 13.3323 10.5749
1 3.12561 14.1284 9.77369
1 2.34327 13.3398 9.77425
1 3.9248 14.126 10.5749
1 4.7185 13.3323 10.5749
1 4.73091 14.111 9.77552
1 3.92183 13.3597 9.76901
1 5.5122 14.126 10.5749
1 6.3059 13.3323 10.5749
1 6.30676 14.1137 9.78236
1 5.51693 13.3371 9.78564
1 7.0996 14.126 10.5749
1 7.8933 13.3323 10.5749
1 7.89052 14.1271 9.78311
1 7.09265 13.3405 9.76251
1 8.68701 14.126 10.5749
1 9.48071 13.3323 10.5749
1 9.48168 14.116 9.75139
1 8.69306 13.331 9.79404
1 10.2744 14.126 10.5749
1 11.0681 13.3323 10.5749
1 11.0836 14.1317 9.77201
1 10.2748 13.3399 9.78522
1 11.8618 14.126 10.5749
1 12.6555 13.3323 10.5749
1 12.6357 14.1336 9.75882
1 11.8552 13.3196 9.78322
1 13.4492 14.126 10.5749
1 14.2429 13.3323 10.5749
1 14.2545 14.1305 9.77434
1 13.46 13.3503 9.78298
1 15.0366 14.126 10.5749
1 15.8303 13.3323 10.5749
1 15.8216 14.1178 9.78628
1 15.0371 13.3503 9.77221
1 16.624 14.126 10.5749
1 17.4177 13.3323 10.5749
1 17.4218 14.1327 9.76499
1 16.6118 13.3361 9.81155
1 18.2114 14.126 10.5749
1 19.0051 13.3323 10.5749
1 18.9877 14.1213 9.79044
1 18.2251 13.3273 9.77082
1 19.7988 14.126 10.5749
1 20.5925 13.3323 10.5749
1 20.5893 14.1494 9.7635
1 19.811 13.3189 9.77793
1 21.3862 14.126 10.5749
1 22.1799 13.3323 10.5749
1 22.1808 14.14 9.79338
1 21.3877 13.3536 9.7581
1 22.9736 14.126 10.5749
1 23.7673 13.3323 10.5749
1 23.7974 14.1102 9.77515
1 22.9679 13.3479 9.75713
1 24.561 14.126 10.5749
1 25.3547 13.3323 10.5749
1 25.3689 14.129 9.79233
1 24.5411 13.3361 9.7635
1 26.1484 14.126 10.5749
1 26.9421 13.3323 10.5749
1 26.9442 14.1125 9.76555
1 26.1472 13.3185 9.76929
1 27.7358 14.126 10.5749
1 28.5295 13.3323 10.5749
1 28.4933 14.1364 9.79643
1 27.7128 13.3067 9.76482
1 29.3232 14.126 10.5749
1 0.116919 13.3323 10.5749
1 0.0609752 14.1373 9.74548
1 29.3034 13.3452 9.80899
1 0.75 12.5386 10.5749
1 1.5437 11.7449 10.5749
1 1.5788 12.5258 9.75186
1 0.800838 11.7401 9.74911
1 2.3374 12.5386 10.5749
1 3.1311 11.7449 10.5749
1 3.14998 12.5373 9.77814
1 2.36506 11.7362 9.7707
1 3.9248 12.5386 10.5749
1 4.7185 11.7449 10.5749
1 4.70288 12.5336 9.79111
1 3.92163 11.7365 9.80129
1 5.5122 12.5386 10.5749
1 6.3059 11.7449 10.5749
1 6.30492 12.5188 9.80125
1 5.51479 11.7309 9.79651
1 7.0996 12.5386 10.5749
1 7.8933 11.7449 10.5749
1 7.92307 12.5415 9.77338
1 7.11464 11.7362 9.76724
1 8.68701 12.5386 10.5749
1 9.48071 11.7449 10.5749
1 9.4767 12.5316 9.75208
1 8.70238 11.7489 9.7693
1 10.2744 12.5386 10.5749
1 11.0681 11.7449 10.5749
1 11.0468 12.5301 9.80772
1 10.2652 11.7494 9.7874
1 11.8618 12.5386 10.5749
1 12.6555 11.7449 10.5749
1 12.6664 12.5356 9.77122
1 11.864 11.7441 9.80483
1 13.4492 12.5386 10.5749
1 14.2429 11.7449 10.5749
1 14.2279 12.5439 9.80233
1 13.4575 11.7174 9.78483
1 15.0366 12.5386 10.5749
1 15.8303 11.7449 10.5749
1 15.8122 12.5432 9.7943
1 15.0321 11.7338 9.78517
1 16.624 12.5386 10.5749
1 17.4177 11.7449 10.5749
1 17.4284 12.5363 9.7814
1 16.6206 11.7368 9.80608
1 18.2114 12.5386 10.5749
1 19.0051 11.7449 10.5749
1 19.0151 12.5273 9.76344
1 18.2116 11.7426 9.77469
1 19.7988 12.5386 10.5749
1 20.5925 11.7449 10.5749
1 20.5983 12.5132 9.77752
1 19.8068 11.7388 9.76892
1 21.3862 12.5386 10.5749
1 22.1799 11.7449 10.5749
1 22.1679 12.5514 9.75628
1 21.4279 11.7508 9.77735
1 22.9736 12.5386 10.5749
1 23.7673 11.7449 10.5749
1 23.7323 12.5511 9.78539
1 22.9666 11.7549 9.76723
1 24.561 12.5386 10.5749
1 25.3547 11.7449 10.5749
1 25.3197 12.5422 9.77565
1 24.5534 11.769 9.77638
1 26.1484 12.5386 10.5749
1 26.9421 11.7449 10.5749
1 26.913 12.5361 9.7832
1 26.1372 11.7494 9.78295
1 27.7358 12.5386 10.5749
1 28.5295 11.7449 10.5749
1 28.4922 12.5401 9.76396
1 27.7129 11.7714 9.78678
1 29.3232 12.5386 10.5749
1 0.116919 11.7449 10.5749
1 0.064409 12.5311 9.75983
1 29.293 11.7681 9.7829
1 0.75 10.9512 10.5749
1 1.5437 10.1575 10.5749
1 1.54232 10.9542 9.7798
1 0.815151 10.1604 9.74233
1 2.3374 10.9512 10.5749
1 3.1311 10.1575 10.5749
1 3.14531 10.9015 9.78285
1 2.33595 10.1352 9.76738
1 3.9248 10.9512 10.5749
1 4.7185 10.1575 10.5749
1 4.73618 10.9229 9.77565
1 3.94878 10.1435 9.80426
1 5.5122 10.9512 10.5749
1 6.3059 10.1575 10.5749
1 6.30607 10.9254 9.80359
1 5.50003 10.167 9.792
1 7.0996 10.9512 10.5749
1 7.8933 10.1575 10.5749
1 7.8997 10.9493 9.77163
1 7.11444 10.143 9.76677
1 8.68701 10.9512 10.5749
1 9.48071 10.1575 10.5749
1 9.47355 10.9557 9.7871
1 8.69286 10.1568 9.77787
1 10.2744 10.9512 10.5749
1 11.0681 10.1575 10.5749
1 11.0583 10.9508 9.78718
1 10.2689 10.1735 9.76846
1 11.8618 10.9512 10.5749
1 12.6555 10.1575 10.5749
1 12.6503 10.9386 9.7657
1 11.8489 10.1385 9.76566
1 13.4492 10.9512 10.5749
1 14.2429 10.1575 10.5749
1 14.2223 10.9413 9.78761
1 13.4385 10.1568 9.77966
1 15.0366 10.9512 10.5749
1 15.8303 10.1575 10.5749
1 15.8531 10.9578 9.79671
1 15.0403 10.1527 9.79079
1 16.624 10.9512 10.5749
1 17.4177 10.1575 10.5749
1 17.4154 10.9433 9.7887
1 16.6444 10.1385 9.76106
1 18.2114 10.9512 10.5749
1 19.0051 10.1575 10.5749
1 18.9789 10.9548 9.79209
1 18.2077 10.1622 9.77205
1 19.7988 10.9512 10.5749
1 20.5925 10.1575 10.5749
1 20.6155 10.9527 9.80694
1 19.8078 10.1844 9.77711
1 21.3862 10.9512 10.5749
1 22.1799 10.1575 10.5749
1 22.2014 10.9659 9.77668
1 21.4125 10.1683 9.78233
1 22.9736 10.9512 10.5749
1 23.7673 10.1575 10.5749
1 23.7756 10.951 9.78213
1 22.9725 10.1718 9.7807
1 24.561 10.9512 10.5749
1 25.3547 10.1575 10.5749
1 25.3568 10.9764 9.81409
1 24.5694 10.1753 9.78339
1 26.1484 10.9512 10.5749
1 26.9421 10.1575 10.5749
1 26.9345 10.9589 9.81028
1 26.1444 10.1706 9.76892
1 27.7358 10.9512 10.5749
1 28.5295 10.1575 10.5749
1 28.5305 10.951 9.78011
1 27.7508 10.1542 9.78784
1 29.3232 10.9512 10.5749
1 0.116919 10.1575 10.5749
1 0.0329041 10.927 9.75202
1 29.2656 10.1355 9.77312
1 0.75 9.36379 10.5749
1 1.5437 8.57009 10.5749
1 1.56879 9.35638 9.75211
1 0.807684 8.58247 9.73378
1 2.3374 9.36379 10.5749
1 3.1311 8.57009 10.5749
1 3.11771 9.37315 9.76507
1 2.34736 8.56706 9.76889
1 3.9248 9.36379 10.5749
1 4.7185 8.57009 10.5749
1 4.74235 9.36937 9.78404
1 3.94094 8.57064 9.78778
1 5.5122 9.36379 10.5749
1 6.3059 8.57009 10.5749
1 6.27878 9.36874 9.77905
1 5.52714 8.56785 9.78333
1 7.0996 9.36379 10.5749
1 7.8933 8.57009 10.5749
1 7.88791 9.35676 9.78035
1 7.0971 8.56951 9.78553
1 8.68701 9.36379 10.5749
1 9.48071 8.57009 10.5749
1 9.46726 9.34453 9.79471
1 8.66395 8.55324 9.76785
1 10.2744 9.36379 10.5749
1 11.0681 8.57009 10.5749
1 11.0606 9.37304 9.79387
1 10.2619 8.57872 9.78828
1 11.8618 9.36379 10.5749
1 12.6555 8.57009 10.5749
1 12.6602 9.35337 9.78974
1 11.8477 8.59164 9.79978
1 13.4492 9.36379 10.5749
1 14.2429 8.57009 10.5749
1 14.2356 9.32261 9.78966
1 13.451 8.57956 9.79339
1 15.0366 9.36379 10.5749
1 15.8303 8.57009 10.5749
1 15.854 9.35062 9.77947
1 15.0497 8.56443 9.78091
1 16.624 9.36379 10.5749
1 17.4177 8.57009 10.5749
1 17.4339 9.37727 9.78972
1 16.6206 8.58176 9.80857
1 18.2114 9.36379 10.5749
1 19.0051 8.57009 10.5749
1 19.0372 9.37014 9.77923
1 18.2287 8.56672 9.76078
1 19.7988 9.36379 10.5749
1 20.5925 8.57009 10.5749
1 20.591 9.36755 9.76951
1 19.8086 8.56961 9.80908
1 21.3862 9.36379 10.5749
1 22.1799 8.57009 10.5749
1 22.1878 9.36878 9.80705
1 21.396 8.58641 9.79015
1 22.9736 9.36379 10.5749
1 23.7673 8.57009 10.5749
1 23.7757 9.36686 9.78515
1 22.9822 8.55006 9.81091
1 24.561 9.36379 10.5749
1 25.3547 8.57009 10.5749
1 25.345 9.38313 9.78488
1 24.5561 8.56559 9.76569
1 26.1484 9.36379 10.5749
1 26.9421 8.57009 10.5749
1 26.9331 9.36598 9.78182
1 26.1411 8.5722 9.78932
1 27.7358 9.36379 10.5749
1 28.5295 8.57009 10.5749
1 28.5261 9.34551 9.78146
1 27.7228 8.58075 9.79773
1 29.3232 9.36379 10.5749
1 0.116919 8.57009 10.5749
1 0.048401 9.3725 9.745
1 29.3157 8.58583 9.78749
1 0.75 7.77639 10.5749
1 1.5437 6.98268 10.5749
1 1.59374 7.77233 9.77699
1 0.801682 7.01083 9.76609
1 2.3374 7.77639 10.5749
1 3.1311 6.98268 10.5749
1 3.1487 7.76474 9.76709
1 2.35265 7.00241 9.76786
1 3.9248 7.77639 10.5749
1 4.7185 6.98268 10.5749
1 4.74531 7.76907 9.78811
1 3.93871 6.98624 9.75361
1 5.5122 7.77639 10.5749
1 6.3059 6.98268 10.5749
1 6.3358 7.77541 9.77922
1 5.52445 6.99022 9.77852
1 7.0996 7.77639 10.5749
1 7.8933 6.98268 10.5749
1 7.89643 7.76851 9.76369
1 7.09759 6.97114 9.79194
1 8.68701 7.77639 10.5749
1 9.48071 6.98268 10.5749
1 9.48107 7.80633 9.80566
1 8.68665 6.99187 9.78651
1 10.2744 7.77639 10.5749
1 11.0681 6.98268 10.5749
1 11.0585 7.7811 9.80666
1 10.2705 6.98026 9.79838
1 11.8618 7.77639 10.5749
1 12.6555 6.98268 10.5749
1 12.6644 7.78784 9.79226
1 11.8417 6.98254 9.76475
1 13.4492 7.77639 10.5749
1 14.2429 6.98268 10.5749
1 14.235 7.74972 9.78363
1 13.4336 6.9549 9.78519
1 15.0366 7.77639 10.5749
1 15.8303 6.98268 10.5749
1 15.8435 7.76825 9.76158
1 15.0355 6.9786 9.78165
1 16.624 7.77639 10.5749
1 17.4177 6.98268 10.5749
1 17.4314 7.80683 9.7549
1 16.6447 7.01356 9.80161
1 18.2114 7.77639 10.5749
1 19.0051 6.98268 10.5749
1 19.0127 7.79795 9.78968
1 18.2041 6.99684 9.80413
1 19.7988 7.77639 10.5749
1 20.5925 6.98268 10.5749
1 20.5925 7.7601 9.80342
1 19.7988 7.00718 9.79788
1 21.3862 7.77639 10.5749
1 22.1799 6.98268 10.5749
1 22.1962 7.76821 9.80032
1 21.409 6.99138 9.76455
1 22.9736 7.77639 10.5749
1 23.7673 6.98268 10.5749
1 23.7699 7.77743 9.76661
1 22.9969 6.96029 9.78957
1 24.561 7.77639 10.5749
1 25.3547 6.98268 10.5749
1 25.3641 7.80306 9.7882
1 24.5794 6.98434 9.79129
1 26.1484 7.77639 10.5749
1 26.9421 6.98268 10.5749
1 26.931 7.75642 9.7804
1 26.1055 6.96927 9.76586
1 27.7358 7.77639 10.5749
1 28.5295 6.98268 10.5749
1 28.5208 7.78474 9.78891
1 27.7459 6.98687 9.7607
1 29.3232 7.77639 10.5749
1 0.116919 6.98268 10.5749
1 0.0371053 7.7771 9.73534
1 29.3022 6.97925 9.76675
1 0.75 6.18898 10.5749
1 1.5437 5.39528 10.5749
1 1.57819 6.1678 9.77308
1 0.779661 5.38829 9.7636
1 2.3374 6.18898 10.5749
1 3.1311 5.39528 10.5749
1 3.16748 6.19848 9.80449
1 2.35327 5.41274 9.78638
1 3.9248 6.18898 10.5749
1 4.7185 5.39528 10.5749
1 4.73876 6.17592 9.77187
1 3.91106 5.40056 9.79355
1 5.5122 6.18898 10.5749
1 6.3059 5.39528 10.5749
1 6.31459 6.18179 9.7656
1 5.52667 5.38384 9.78135
1 7.0996 6.18898 10.5749
1 7.8933 5.39528 10.5749
1 7.85766 6.18941 9.79575
1 7.07653 5.41719 9.82581
1 8.68701 6.18898 10.5749
1 9.48071 5.39528 10.5749
1 9.48269 6.17482 9.7898
1 8.68054 5.40623 9.79915