12976
Atoms. Timestep: 4000000
1 30 7.10543e-15 15.2588
1 0.793701 29.2063 15.2588
1 0.801721 29.9474 14.4163
1 0.0514452 29.2012 14.4296
1 1.5874 7.10543e-15 15.2588
1 2.3811 29.2063 15.2588
1 2.40015 29.9392 14.4407
1 1.62363 29.2075 14.4431
1 3.1748 7.10543e-15 15.2588
1 3.9685 29.2063 15.2588
1 3.98145 29.909 14.4366
1 3.19013 29.1753 14.4338
1 4.7622 7.10543e-15 15.2588
1 5.5559 29.2063 15.2588
1 5.55367 29.9359 14.4475
1 4.78012 29.1966 14.4317
1 6.3496 7.10543e-15 15.2588
1 7.1433 29.2063 15.2588
1 7.14537 29.9297 14.4612
1 6.35969 29.172 14.4585
1 7.93701 7.10543e-15 15.2588
1 8.73071 29.2063 15.2588
1 8.74182 29.9329 14.438
1 7.93462 29.1669 14.4903
1 9.52441 7.10543e-15 15.2588
1 10.3181 29.2063 15.2588
1 10.3329 29.9302 14.4299
1 9.53059 29.17 14.4527
1 11.1118 7.10543e-15 15.2588
1 11.9055 29.2063 15.2588
1 11.9004 29.964 14.4551
1 11.1237 29.1998 14.4567
1 12.6992 7.10543e-15 15.2588
1 13.4929 29.2063 15.2588
1 13.4948 29.9024 14.4134
1 12.7228 29.1823 14.4543
1 14.2866 7.10543e-15 15.2588
1 15.0803 29.2063 15.2588
1 15.0838 29.901 14.4337
1 14.2744 29.1807 14.4556
1 15.874 7.10543e-15 15.2588
1 16.6677 29.2063 15.2588
1 16.6781 29.9133 14.4506
1 15.8634 29.1509 14.4382
1 17.4614 7.10543e-15 15.2588
1 18.2551 29.2063 15.2588
1 18.2624 29.9238 14.4063
1 17.4691 29.1546 14.4576
1 19.0488 7.10543e-15 15.2588
1 19.8425 29.2063 15.2588
1 19.8585 29.94 14.4302
1 19.0411 29.1626 14.4382
1 20.6362 7.10543e-15 15.2588
1 21.4299 29.2063 15.2588
1 21.4371 29.948 14.4266
1 20.6604 29.1809 14.4625
1 22.2236 7.10543e-15 15.2588
1 23.0173 29.2063 15.2588
1 23.0024 29.8993 14.4358
1 22.2128 29.148 14.4244
1 23.811 7.10543e-15 15.2588
1 24.6047 29.2063 15.2588
1 24.6079 29.9229 14.4392
1 23.8259 29.1646 14.4678
1 25.3984 7.10543e-15 15.2588
1 26.1921 29.2063 15.2588
1 26.1848 29.9319 14.4461
1 25.3871 29.1752 14.4654
1 26.9858 7.10543e-15 15.2588
1 27.7795 29.2063 15.2588
1 27.7466 29.9359 14.404
1 26.9521 29.1692 14.4698
1 28.5732 7.10543e-15 15.2588
1 29.3669 29.2063 15.2588
1 29.2963 29.9472 14.3994
1 28.5279 29.1642 14.4577
1 30 28.4126 15.2588
1 0.793701 27.6189 15.2588
1 0.831193 28.418 14.448
1 0.0490951 27.5949 14.4345
1 1.5874 28.4126 15.2588
1 2.3811 27.6189 15.2588
1 2.42447 28.4153 14.4412
1 1.59177 27.6198 14.4694
1 3.1748 28.4126 15.2588
1 3.9685 27.6189 15.2588
1 3.97629 28.4002 14.459
1 3.1796 27.6241 14.4695
1 4.7622 28.4126 15.2588
1 5.5559 27.6189 15.2588
1 5.55708 28.3989 14.5045
1 4.76848 27.6085 14.4414
1 6.3496 28.4126 15.2588
1 7.1433 27.6189 15.2588
1 7.13276 28.3842 14.4507
1 6.34864 27.6105 14.4394
1 7.93701 28.4126 15.2588
1 8.73071 27.6189 15.2588
1 8.72059 28.402 14.4616
1 7.93455 27.6122 14.4528
1 9.52441 28.4126 15.2588
1 10.3181 27.6189 15.2588
1 10.3155 28.4181 14.4494
1 9.54368 27.5996 14.4459
1 11.1118 28.4126 15.2588
1 11.9055 27.6189 15.2588
1 11.8907 28.3909 14.4866
1 11.1088 27.6077 14.4513
1 12.6992 28.4126 15.2588
1 13.4929 27.6189 15.2588
1 13.4919 28.406 14.4784
1 12.7144 27.5895 14.4682
1 14.2866 28.4126 15.2588
1 15.0803 27.6189 15.2588
1 15.064 28.3759 14.4659
1 14.2785 27.5973 14.4681
1 15.874 28.4126 15.2588
1 16.6677 27.6189 15.2588
1 16.6527 28.3829 14.5041
1 15.8919 27.5932 14.4461
1 17.4614 28.4126 15.2588
1 18.2551 27.6189 15.2588
1 18.2385 28.3819 14.4389
1 17.4535 27.5829 14.4516
1 19.0488 28.4126 15.2588
1 19.8425 27.6189 15.2588
1 19.8351 28.4352 14.4649
1 19.0574 27.5942 14.4383
1 20.6362 28.4126 15.2588
1 21.4299 27.6189 15.2588
1 21.4397 28.3717 14.4571
1 20.6251 27.5993 14.4523
1 22.2236 28.4126 15.2588
1 23.0173 27.6189 15.2588
1 23.0281 28.3915 14.4386
1 22.2329 27.5886 14.456
1 23.811 28.4126 15.2588
1 24.6047 27.6189 15.2588
1 24.6091 28.4067 14.4689
1 23.7951 27.6024 14.4651
1 25.3984 28.4126 15.2588
1 26.1921 27.6189 15.2588
1 26.1927 28.3894 14.4738
1 25.3828 27.6082 14.4834
1 26.9858 28.4126 15.2588
1 27.7795 27.6189 15.2588
1 27.7445 28.3927 14.4775
1 26.9829 27.6178 14.4513
1 28.5732 28.4126 15.2588
1 29.3669 27.6189 15.2588
1 29.283 28.4168 14.4245
1 28.5367 27.6328 14.461
1 30 26.8252 15.2588
1 0.793701 26.0315 15.2588
1 0.832622 26.8378 14.4342
1 0.0657503 26.0545 14.449
1 1.5874 26.8252 15.2588
1 2.3811 26.0315 15.2588
1 2.37309 26.8455 14.4662
1 1.62978 26.0566 14.456
1 3.1748 26.8252 15.2588
1 3.9685 26.0315 15.2588
1 3.98615 26.8145 14.4642
1 3.17977 26.0479 14.4591
1 4.7622 26.8252 15.2588
1 5.5559 26.0315 15.2588
1 5.56033 26.8405 14.461
1 4.77971 26.0493 14.4552
1 6.3496 26.8252 15.2588
1 7.1433 26.0315 15.2588
1 7.15082 26.8225 14.4799
1 6.35551 26.0428 14.4483
1 7.93701 26.8252 15.2588
1 8.73071 26.0315 15.2588
1 8.75857 26.8212 14.4767
1 7.94305 26.0299 14.4921
1 9.52441 26.8252 15.2588
1 10.3181 26.0315 15.2588
1 10.3241 26.8088 14.4608
1 9.53077 26.0356 14.4609
1 11.1118 26.8252 15.2588
1 11.9055 26.0315 15.2588
1 11.9179 26.802 14.4699
1 11.1166 26.0145 14.4562
1 12.6992 26.8252 15.2588
1 13.4929 26.0315 15.2588
1 13.4903 26.8093 14.4784
1 12.6894 26.0125 14.475
1 14.2866 26.8252 15.2588
1 15.0803 26.0315 15.2588
1 15.0897 26.8123 14.4513
1 14.2651 26.0429 14.4794
1 15.874 26.8252 15.2588
1 16.6677 26.0315 15.2588
1 16.6668 26.7949 14.471
1 15.8894 26.0247 14.4853
1 17.4614 26.8252 15.2588
1 18.2551 26.0315 15.2588
1 18.2702 26.816 14.4431
1 17.4761 26.0156 14.4466
1 19.0488 26.8252 15.2588
1 19.8425 26.0315 15.2588
1 19.8354 26.8204 14.4485
1 19.075 25.9864 14.4822
1 20.6362 26.8252 15.2588
1 21.4299 26.0315 15.2588
1 21.4335 26.8097 14.4525
1 20.6649 26.0192 14.4481
1 22.2236 26.8252 15.2588
1 23.0173 26.0315 15.2588
1 23.0205 26.7889 14.4717
1 22.2248 26.0272 14.4547
1 23.811 26.8252 15.2588
1 24.6047 26.0315 15.2588
1 24.5848 26.8095 14.4683
1 23.7944 26.0178 14.43
1 25.3984 26.8252 15.2588
1 26.1921 26.0315 15.2588
1 26.1837 26.8039 14.4585
1 25.3783 26.0351 14.474
1 26.9858 26.8252 15.2588
1 27.7795 26.0315 15.2588
1 27.7572 26.79 14.4747
1 26.9852 26.0092 14.4926
1 28.5732 26.8252 15.2588
1 29.3669 26.0315 15.2588
1 29.2933 26.8221 14.4499
1 28.5514 26.0119 14.4543
1 30 25.2378 15.2588
1 0.793701 24.4441 15.2588
1 0.826775 25.2537 14.466
1 0.0834612 24.4377 14.4501
1 1.5874 25.2378 15.2588
1 2.3811 24.4441 15.2588
1 2.35695 25.2346 14.4648
1 1.61377 24.4484 14.442
1 3.1748 25.2378 15.2588
1 3.9685 24.4441 15.2588
1 3.9798 25.2662 14.4904
1 3.16522 24.4634 14.4566
1 4.7622 25.2378 15.2588
1 5.5559 24.4441 15.2588
1 5.5841 25.2647 14.5023
1 4.77324 24.4266 14.4701
1 6.3496 25.2378 15.2588
1 7.1433 24.4441 15.2588
1 7.14713 25.253 14.4653
1 6.35792 24.465 14.4765
1 7.93701 25.2378 15.2588
1 8.73071 24.4441 15.2588
1 8.71713 25.2404 14.4677
1 7.94926 24.4479 14.4646
1 9.52441 25.2378 15.2588
1 10.3181 24.4441 15.2588
1 10.3162 25.2102 14.4341
1 9.49361 24.432 14.4775
1 11.1118 25.2378 15.2588
1 11.9055 24.4441 15.2588
1 11.9001 25.2384 14.4657
1 11.089 24.4312 14.4609
1 12.6992 25.2378 15.2588
1 13.4929 24.4441 15.2588
1 13.5026 25.2347 14.4482
1 12.6959 24.4548 14.4797
1 14.2866 25.2378 15.2588
1 15.0803 24.4441 15.2588
1 15.089 25.2298 14.4808
1 14.2911 24.4341 14.4655
1 15.874 25.2378 15.2588
1 16.6677 24.4441 15.2588
1 16.6693 25.2494 14.4782
1 15.8904 24.4511 14.4806
1 17.4614 25.2378 15.2588
1 18.2551 24.4441 15.2588
1 18.2382 25.2236 14.4461
1 17.477 24.4452 14.4624
1 19.0488 25.2378 15.2588
1 19.8425 24.4441 15.2588
1 19.8622 25.2285 14.4495
1 19.0537 24.4331 14.4733
1 20.6362 25.2378 15.2588
1 21.4299 24.4441 15.2588
1 21.4421 25.2332 14.4681
1 20.6542 24.4358 14.4784
1 22.2236 25.2378 15.2588
1 23.0173 24.4441 15.2588
1 23.0086 25.2179 14.461
1 22.2121 24.4391 14.4664
1 23.811 25.2378 15.2588
1 24.6047 24.4441 15.2588
1 24.5829 25.2112 14.4655
1 23.8076 24.4169 14.4607
1 25.3984 25.2378 15.2588
1 26.1921 24.4441 15.2588
1 26.1724 25.2329 14.4729
1 25.3836 24.4354 14.4443
1 26.9858 25.2378 15.2588
1 27.7795 24.4441 15.2588
1 27.7883 25.2255 14.481
1 26.9565 24.454 14.4873
1 28.5732 25.2378 15.2588
1 29.3669 24.4441 15.2588
1 29.2918 25.2378 14.4343
1 28.5454 24.4262 14.4733
1 30 23.6504 15.2588
1 0.793701 22.8567 15.2588
1 0.872767 23.6624 14.4334
1 0.0772804 22.8689 14.3856
1 1.5874 23.6504 15.2588
1 2.3811 22.8567 15.2588
1 2.36609 23.6532 14.451
1 1.59333 22.8642 14.4628
1 3.1748 23.6504 15.2588
1 3.9685 22.8567 15.2588
1 3.96397 23.6648 14.4507
1 3.16194 22.8637 14.4615
1 4.7622 23.6504 15.2588
1 5.5559 22.8567 15.2588
1 5.56907 23.6623 14.4514
1 4.75132 22.8507 14.474
1 6.3496 23.6504 15.2588
1 7.1433 22.8567 15.2588
1 7.17508 23.6542 14.4684
1 6.35292 22.8655 14.4518
1 7.93701 23.6504 15.2588
1 8.73071 22.8567 15.2588
1 8.7235 23.6182 14.4702
1 7.94951 22.8559 14.4642
1 9.52441 23.6504 15.2588
1 10.3181 22.8567 15.2588
1 10.2973 23.6565 14.4814
1 9.52959 22.8246 14.4543
1 11.1118 23.6504 15.2588
1 11.9055 22.8567 15.2588
1 11.8973 23.6513 14.4679
1 11.0786 22.8556 14.4904
1 12.6992 23.6504 15.2588
1 13.4929 22.8567 15.2588
1 13.4936 23.664 14.4801
1 12.6803 22.8466 14.4577
1 14.2866 23.6504 15.2588
1 15.0803 22.8567 15.2588
1 15.1073 23.6619 14.4968
1 14.2702 22.8537 14.4777
1 15.874 23.6504 15.2588
1 16.6677 22.8567 15.2588
1 16.6731 23.6475 14.4728
1 15.8874 22.8561 14.4935
1 17.4614 23.6504 15.2588
1 18.2551 22.8567 15.2588
1 18.2655 23.6546 14.4862
1 17.4622 22.8611 14.4527
1 19.0488 23.6504 15.2588
1 19.8425 22.8567 15.2588
1 19.8425 23.6615 14.4671
1 19.0412 22.8733 14.4848
1 20.6362 23.6504 15.2588
1 21.4299 22.8567 15.2588
1 21.4195 23.6093 14.4436
1 20.6183 22.8423 14.4885
1 22.2236 23.6504 15.2588
1 23.0173 22.8567 15.2588
1 22.9866 23.6561 14.4435
1 22.2288 22.8632 14.47
1 23.811 23.6504 15.2588
1 24.6047 22.8567 15.2588
1 24.6081 23.6179 14.4541
1 23.8369 22.833 14.4732
1 25.3984 23.6504 15.2588
1 26.1921 22.8567 15.2588
1 26.1937 23.649 14.4977
1 25.4124 22.8389 14.4567
1 26.9858 23.6504 15.2588
1 27.7795 22.8567 15.2588
1 27.7624 23.6534 14.4618
1 26.972 22.8444 14.4794
1 28.5732 23.6504 15.2588
1 29.3669 22.8567 15.2588
1 29.2984 23.671 14.4317
1 28.5541 22.8779 14.4637
1 30 22.063 15.2588
1 0.793701 21.2693 15.2588
1 0.802692 22.0662 14.4324
1 0.0464634 21.2904 14.4456
1 1.5874 22.063 15.2588
1 2.3811 21.2693 15.2588
1 2.38197 22.0762 14.4652
1 1.60944 21.3009 14.4668
1 3.1748 22.063 15.2588
1 3.9685 21.2693 15.2588
1 3.98171 22.0646 14.4618
1 3.16152 21.2788 14.4393
1 4.7622 22.063 15.2588
1 5.5559 21.2693 15.2588
1 5.54625 22.0555 14.4596
1 4.7571 21.2622 14.4582
1 6.3496 22.063 15.2588
1 7.1433 21.2693 15.2588
1 7.13019 22.0617 14.4649
1 6.34015 21.2591 14.459
1 7.93701 22.063 15.2588
1 8.73071 21.2693 15.2588
1 8.72299 22.0334 14.4863
1 7.91729 21.2568 14.4341
1 9.52441 22.063 15.2588
1 10.3181 21.2693 15.2588
1 10.2889 22.0541 14.4462
1 9.50851 21.2416 14.4371
1 11.1118 22.063 15.2588
1 11.9055 21.2693 15.2588
1 11.8948 22.0563 14.477
1 11.1234 21.2701 14.4704
1 12.6992 22.063 15.2588
1 13.4929 21.2693 15.2588
1 13.4852 22.0787 14.4777
1 12.6825 21.2612 14.4809
1 14.2866 22.063 15.2588
1 15.0803 21.2693 15.2588
1 15.0825 22.06 14.4556
1 14.2665 21.2937 14.4741
1 15.874 22.063 15.2588
1 16.6677 21.2693 15.2588
1 16.6649 22.0537 14.4948
1 15.869 21.2732 14.4634
1 17.4614 22.063 15.2588
1 18.2551 21.2693 15.2588
1 18.2485 22.0558 14.4751
1 17.4354 21.2632 14.4869
1 19.0488 22.063 15.2588
1 19.8425 21.2693 15.2588
1 19.8323 22.0532 14.451
1 19.0332 21.2272 14.4922
1 20.6362 22.063 15.2588
1 21.4299 21.2693 15.2588
1 21.4252 22.0848 14.4605
1 20.6355 21.2693 14.4508
1 22.2236 22.063 15.2588
1 23.0173 21.2693 15.2588
1 23.025 22.0684 14.4796
1 22.2298 21.2563 14.462
1 23.811 22.063 15.2588
1 24.6047 21.2693 15.2588
1 24.621 22.0603 14.4417
1 23.8172 21.2657 14.4654
1 25.3984 22.063 15.2588
1 26.1921 21.2693 15.2588
1 26.2001 22.0263 14.4284
1 25.3919 21.2701 14.4694
1 26.9858 22.063 15.2588
1 27.7795 21.2693 15.2588
1 27.7618 22.0582 14.4873
1 26.9938 21.2544 14.4412
1 28.5732 22.063 15.2588
1 29.3669 21.2693 15.2588
1 29.305 22.0912 14.446
1 28.552 21.2836 14.4547
1 30 20.4756 15.2588
1 0.793701 19.6819 15.2588
1 0.823678 20.4973 14.4793
1 0.0631429 19.6959 14.4144
1 1.5874 20.4756 15.2588
1 2.3811 19.6819 15.2588
1 2.39301 20.4747 14.4637
1 1.57768 19.6791 14.469
1 3.1748 20.4756 15.2588
1 3.9685 19.6819 15.2588
1 4.00535 20.4735 14.4581
1 3.17414 19.6733 14.4842
1 4.7622 20.4756 15.2588
1 5.5559 19.6819 15.2588
1 5.5657 20.4701 14.4593
1 4.79764 19.6728 14.426
1 6.3496 20.4756 15.2588
1 7.1433 19.6819 15.2588
1 7.11728 20.4739 14.449
1 6.36921 19.6951 14.4629
1 7.93701 20.4756 15.2588
1 8.73071 19.6819 15.2588
1 8.72358 20.4876 14.4848
1 7.93355 19.6925 14.4376
1 9.52441 20.4756 15.2588
1 10.3181 19.6819 15.2588
1 10.3227 20.4849 14.4545
1 9.56677 19.6614 14.482
1 11.1118 20.4756 15.2588
1 11.9055 19.6819 15.2588
1 11.9181 20.4709 14.4773
1 11.1055 19.6917 14.456
1 12.6992 20.4756 15.2588
1 13.4929 19.6819 15.2588
1 13.4823 20.4909 14.4723
1 12.7052 19.691 14.4599
1 14.2866 20.4756 15.2588
1 15.0803 19.6819 15.2588
1 15.0649 20.4859 14.4657
1 14.2718 19.6755 14.4866
1 15.874 20.4756 15.2588
1 16.6677 19.6819 15.2588
1 16.6611 20.4765 14.4772
1 15.877 19.6636 14.4457
1 17.4614 20.4756 15.2588
1 18.2551 19.6819 15.2588
1 18.2367 20.4401 14.4724
1 17.4587 19.6836 14.4604
1 19.0488 20.4756 15.2588
1 19.8425 19.6819 15.2588
1 19.8297 20.5023 14.4738
1 19.0319 19.6783 14.4517
1 20.6362 20.4756 15.2588
1 21.4299 19.6819 15.2588
1 21.4165 20.4546 14.4546
1 20.6208 19.7025 14.4748
1 22.2236 20.4756 15.2588
1 23.0173 19.6819 15.2588
1 23.0262 20.4809 14.4887
1 22.2086 19.675 14.4535
1 23.811 20.4756 15.2588
1 24.6047 19.6819 15.2588
1 24.5999 20.4868 14.468
1 23.8166 19.6871 14.4809
1 25.3984 20.4756 15.2588
1 26.1921 19.6819 15.2588
1 26.1905 20.4587 14.4656
1 25.3877 19.6922 14.4705
1 26.9858 20.4756 15.2588
1 27.7795 19.6819 15.2588
1 27.7696 20.468 14.4571
1 26.9749 19.6698 14.4714
1 28.5732 20.4756 15.2588
1 29.3669 19.6819 15.2588
1 29.3269 20.472 14.4161
1 28.5385 19.7184 14.452
1 30 18.8882 15.2588
1 0.793701 18.0945 15.2588
1 0.818993 18.8607 14.5031
1 0.0394768 18.093 14.4493
1 1.5874 18.8882 15.2588
1 2.3811 18.0945 15.2588
1 2.3961 18.8932 14.4613
1 1.62051 18.114 14.501
1 3.1748 18.8882 15.2588
1 3.9685 18.0945 15.2588
1 3.9858 18.8792 14.4868
1 3.17375 18.1159 14.4627
1 4.7622 18.8882 15.2588
1 5.5559 18.0945 15.2588
1 5.5778 18.8728 14.4634
1 4.78676 18.1094 14.5054
1 6.3496 18.8882 15.2588
1 7.1433 18.0945 15.2588
1 7.1286 18.9161 14.4571
1 6.36421 18.0993 14.4768
1 7.93701 18.8882 15.2588
1 8.73071 18.0945 15.2588
1 8.74711 18.9056 14.4489
1 7.93381 18.101 14.4461
1 9.52441 18.8882 15.2588
1 10.3181 18.0945 15.2588
1 10.3245 18.8782 14.4678
1 9.54117 18.0916 14.4698
1 11.1118 18.8882 15.2588
1 11.9055 18.0945 15.2588
1 11.9207 18.885 14.4588
1 11.114 18.0706 14.4733
1 12.6992 18.8882 15.2588
1 13.4929 18.0945 15.2588
1 13.4707 18.885 14.4651
1 12.7106 18.0851 14.4651
1 14.2866 18.8882 15.2588
1 15.0803 18.0945 15.2588
1 15.0739 18.8834 14.4998
1 14.3117 18.0869 14.4617
1 15.874 18.8882 15.2588
1 16.6677 18.0945 15.2588
1 16.6636 18.9087 14.4893
1 15.8771 18.0875 14.4909
1 17.4614 18.8882 15.2588
1 18.2551 18.0945 15.2588
1 18.2632 18.8988 14.4658
1 17.4441 18.1088 14.4894
1 19.0488 18.8882 15.2588
1 19.8425 18.0945 15.2588
1 19.852 18.9253 14.4756
1 19.0464 18.1017 14.4803
1 20.6362 18.8882 15.2588
1 21.4299 18.0945 15.2588
1 21.4141 18.8773 14.4713
1 20.6083 18.0745 14.4649
1 22.2236 18.8882 15.2588
1 23.0173 18.0945 15.2588
1 23.0255 18.8686 14.4728
1 22.2316 18.0825 14.4538
1 23.811 18.8882 15.2588
1 24.6047 18.0945 15.2588
1 24.5872 18.8734 14.4637
1 23.8147 18.0886 14.4695
1 25.3984 18.8882 15.2588
1 26.1921 18.0945 15.2588
1 26.1778 18.8922 14.4695
1 25.3838 18.0949 14.4577
1 26.9858 18.8882 15.2588
1 27.7795 18.0945 15.2588
1 27.7638 18.8946 14.4792
1 26.9755 18.1063 14.5063
1 28.5732 18.8882 15.2588
1 29.3669 18.0945 15.2588
1 29.2856 18.8773 14.465
1 28.54 18.1083 14.4707
1 30 17.3008 15.2588
1 0.793701 16.5071 15.2588
1 0.831228 17.3301 14.4677
1 0.0823555 16.5142 14.454
1 1.5874 17.3008 15.2588
1 2.3811 16.5071 15.2588
1 2.39398 17.3023 14.4649
1 1.62451 16.4899 14.4568
1 3.1748 17.3008 15.2588
1 3.9685 16.5071 15.2588
1 3.98971 17.3074 14.481
1 3.18009 16.4983 14.4598
1 4.7622 17.3008 15.2588
1 5.5559 16.5071 15.2588
1 5.56964 17.3265 14.4441
1 4.76789 16.5213 14.4705
1 6.3496 17.3008 15.2588
1 7.1433 16.5071 15.2588
1 7.13696 17.3097 14.4655
1 6.347 16.5102 14.4557
1 7.93701 17.3008 15.2588
1 8.73071 16.5071 15.2588
1 8.70528 17.2969 14.4558
1 7.91604 16.4875 14.4769
1 9.52441 17.3008 15.2588
1 10.3181 16.5071 15.2588
1 10.3164 17.2781 14.4576
1 9.53389 16.5205 14.4664
1 11.1118 17.3008 15.2588
1 11.9055 16.5071 15.2588
1 11.9108 17.2918 14.4635
1 11.1023 16.5199 14.4603
1 12.6992 17.3008 15.2588
1 13.4929 16.5071 15.2588
1 13.4871 17.2868 14.4249
1 12.7203 16.516 14.4479
1 14.2866 17.3008 15.2588
1 15.0803 16.5071 15.2588
1 15.0931 17.3276 14.4765
1 14.2781 16.5111 14.4489
1 15.874 17.3008 15.2588
1 16.6677 16.5071 15.2588
1 16.677 17.3035 14.4768
1 15.8581 16.4935 14.4698
1 17.4614 17.3008 15.2588
1 18.2551 16.5071 15.2588
1 18.2647 17.306 14.4709
1 17.459 16.4876 14.463
1 19.0488 17.3008 15.2588
1 19.8425 16.5071 15.2588
1 19.8472 17.2783 14.4537
1 19.0513 16.4938 14.4591
1 20.6362 17.3008 15.2588
1 21.4299 16.5071 15.2588
1 21.4154 17.2878 14.4655
1 20.6645 16.4948 14.4633
1 22.2236 17.3008 15.2588
1 23.0173 16.5071 15.2588
1 23.0102 17.2882 14.4698
1 22.2272 16.4888 14.4535
1 23.811 17.3008 15.2588
1 24.6047 16.5071 15.2588
1 24.6017 17.2997 14.4486
1 23.7817 16.4914 14.4738
1 25.3984 17.3008 15.2588
1 26.1921 16.5071 15.2588
1 26.1777 17.284 14.4886
1 25.4094 16.5008 14.4903
1 26.9858 17.3008 15.2588
1 27.7795 16.5071 15.2588
1 27.7666 17.2785 14.4597
1 26.95 16.5089 14.4794
1 28.5732 17.3008 15.2588
1 29.3669 16.5071 15.2588
1 29.2941 17.282 14.4401
1 28.5128 16.5225 14.4905
1 30 15.7134 15.2588
1 0.793701 14.9197 15.2588
1 0.849468 15.7063 14.4812
1 0.0929921 14.8954 14.4374
1 1.5874 15.7134 15.2588
1 2.3811 14.9197 15.2588
1 2.4171 15.7145 14.4433
1 1.62614 14.9298 14.4627
1 3.1748 15.7134 15.2588
1 3.9685 14.9197 15.2588
1 3.97008 15.7097 14.4825
1 3.17084 14.944 14.4754
1 4.7622 15.7134 15.2588
1 5.5559 14.9197 15.2588
1 5.57334 15.7298 14.5103
1 4.77798 14.9157 14.4799
1 6.3496 15.7134 15.2588
1 7.1433 14.9197 15.2588
1 7.13315 15.6926 14.444
1 6.34201 14.9184 14.468
1 7.93701 15.7134 15.2588
1 8.73071 14.9197 15.2588
1 8.73655 15.7152 14.4669
1 7.92281 14.911 14.4796
1 9.52441 15.7134 15.2588
1 10.3181 14.9197 15.2588
1 10.3245 15.7125 14.4663
1 9.52305 14.9088 14.4663
1 11.1118 15.7134 15.2588
1 11.9055 14.9197 15.2588
1 11.9344 15.712 14.4513
1 11.1079 14.923 14.4574
1 12.6992 15.7134 15.2588
1 13.4929 14.9197 15.2588
1 13.4953 15.73 14.4686
1 12.7226 14.9198 14.4537
1 14.2866 15.7134 15.2588
1 15.0803 14.9197 15.2588
1 15.0884 15.7045 14.4593
1 14.2948 14.9054 14.4426
1 15.874 15.7134 15.2588
1 16.6677 14.9197 15.2588
1 16.6655 15.7209 14.4757
1 15.908 14.9172 14.4508
1 17.4614 15.7134 15.2588
1 18.2551 14.9197 15.2588
1 18.2541 15.7035 14.4601
1 17.4633 14.9001 14.475
1 19.0488 15.7134 15.2588
1 19.8425 14.9197 15.2588
1 19.8532 15.7021 14.4691
1 19.009 14.8994 14.4671
1 20.6362 15.7134 15.2588
1 21.4299 14.9197 15.2588
1 21.4261 15.6886 14.449
1 20.6114 14.9161 14.4676
1 22.2236 15.7134 15.2588
1 23.0173 14.9197 15.2588
1 23.0176 15.7213 14.46
1 22.2186 14.9417 14.4595
1 23.811 15.7134 15.2588
1 24.6047 14.9197 15.2588
1 24.6178 15.7231 14.4965
1 23.843 14.9155 14.4709
1 25.3984 15.7134 15.2588
1 26.1921 14.9197 15.2588
1 26.1987 15.7105 14.4938
1 25.3988 14.9069 14.4729
1 26.9858 15.7134 15.2588
1 27.7795 14.9197 15.2588
1 27.7641 15.704 14.492
1 26.9796 14.9107 14.4623
1 28.5732 15.7134 15.2588
1 29.3669 14.9197 15.2588
1 29.3127 15.7079 14.4379
1 28.5815 14.9031 14.4895
1 30 14.126 15.2588
1 0.793701 13.3323 15.2588
1 0.844336 14.1157 14.4508
1 0.0751278 13.3328 14.4428
1 1.5874 14.126 15.2588
1 2.3811 13.3323 15.2588
1 2.411 14.1244 14.4487
1 1.62576 13.3548 14.4339
1 3.1748 14.126 15.2588
1 3.9685 13.3323 15.2588
1 3.95823 14.1016 14.4563
1 3.19125 13.3377 14.4685
1 4.7622 14.126 15.2588
1 5.5559 13.3323 15.2588
1 5.5598 14.1092 14.4677
1 4.76112 13.347 14.4878
1 6.3496 14.126 15.2588
1 7.1433 13.3323 15.2588
1 7.14703 14.12 14.4728
1 6.34952 13.3371 14.4776
1 7.93701 14.126 15.2588
1 8.73071 13.3323 15.2588
1 8.74866 14.1455 14.4774
1 7.94101 13.3415 14.458
1 9.52441 14.126 15.2588
1 10.3181 13.3323 15.2588
1 10.3119 14.1106 14.4847
1 9.50602 13.3318 14.4651
1 11.1118 14.126 15.2588
1 11.9055 13.3323 15.2588
1 11.9155 14.146 14.4588
1 11.1187 13.3361 14.4528
1 12.6992 14.126 15.2588
1 13.4929 13.3323 15.2588
1 13.4873 14.1352 14.4555
1 12.7187 13.3277 14.4519
1 14.2866 14.126 15.2588
1 15.0803 13.3323 15.2588
1 15.0815 14.105 14.4427
1 14.2742 13.3168 14.4738
1 15.874 14.126 15.2588
1 16.6677 13.3323 15.2588
1 16.6641 14.0983 14.4566
1 15.8802 13.3299 14.4332
1 17.4614 14.126 15.2588
1 18.2551 13.3323 15.2588
1 18.2594 14.1267 14.4898
1 17.4605 13.3301 14.463
1 19.0488 14.126 15.2588
1 19.8425 13.3323 15.2588
1 19.8356 14.1187 14.4752
1 19.015 13.3232 14.461
1 20.6362 14.126 15.2588
1 21.4299 13.3323 15.2588
1 21.4061 14.1288 14.4621
1 20.6245 13.3165 14.4701
1 22.2236 14.126 15.2588
1 23.0173 13.3323 15.2588
1 23.0306 14.1251 14.4639
1 22.2331 13.3661 14.4841
1 23.811 14.126 15.2588
1 24.6047 13.3323 15.2588
1 24.5933 14.126 14.4605
1 23.8008 13.3395 14.456
1 25.3984 14.126 15.2588
1 26.1921 13.3323 15.2588
1 26.1944 14.1173 14.4755
1 25.3916 13.333 14.4829
1 26.9858 14.126 15.2588
1 27.7795 13.3323 15.2588
1 27.7644 14.1251 14.4646
1 26.9845 13.3359 14.4545
1 28.5732 14.126 15.2588
1 29.3669 13.3323 15.2588
1 29.2897 14.1106 14.4524
1 28.5214 13.2987 14.4358
1 30 12.5386 15.2588
1 0.793701 11.7449 15.2588
1 0.84778 12.5357 14.4659
1 0.0652955 11.7463 14.4339
1 1.5874 12.5386 15.2588
1 2.3811 11.7449 15.2588
1 2.40328 12.5535 14.4396
1 1.60667 11.7362 14.4823
1 3.1748 12.5386 15.2588
1 3.9685 11.7449 15.2588
1 3.96611 12.5339 14.4768
1 3.19117 11.7475 14.4797
1 4.7622 12.5386 15.2588
1 5.5559 11.7449 15.2588
1 5.57536 12.5375 14.4577
1 4.74583 11.7404 14.462
1 6.3496 12.5386 15.2588
1 7.1433 11.7449 15.2588
1 7.14885 12.5267 14.4607
1 6.32985 11.7627 14.4701
1 7.93701 12.5386 15.2588
1 8.73071 11.7449 15.2588
1 8.72668 12.5427 14.4936
1 7.94204 11.744 14.4752
1 9.52441 12.5386 15.2588
1 10.3181 11.7449 15.2588
1 10.3033 12.5385 14.4638
1 9.51333 11.7609 14.4453
1 11.1118 12.5386 15.2588
1 11.9055 11.7449 15.2588
1 11.9126 12.5207 14.4516
1 11.109 11.7626 14.4653
1 12.6992 12.5386 15.2588
1 13.4929 11.7449 15.2588
1 13.5086 12.5215 14.4836
1 12.681 11.7351 14.4816
1 14.2866 12.5386 15.2588
1 15.0803 11.7449 15.2588
1 15.0761 12.5817 14.454
1 14.2978 11.7511 14.4402
1 15.874 12.5386 15.2588
1 16.6677 11.7449 15.2588
1 16.6677 12.5416 14.4734
1 15.8589 11.7309 14.4557
1 17.4614 12.5386 15.2588
1 18.2551 11.7449 15.2588
1 18.2534 12.5107 14.4564
1 17.4472 11.7188 14.4699
1 19.0488 12.5386 15.2588
1 19.8425 11.7449 15.2588
1 19.8412 12.549 14.4646
1 19.0493 11.7452 14.4755
1 20.6362 12.5386 15.2588
1 21.4299 11.7449 15.2588
1 21.4444 12.5455 14.4641
1 20.654 11.7302 14.4694
1 22.2236 12.5386 15.2588
1 23.0173 11.7449 15.2588
1 23.0212 12.5625 14.4732
1 22.2375 11.7656 14.4899
1 23.811 12.5386 15.2588
1 24.6047 11.7449 15.2588
1 24.5817 12.5461 14.4733
1 23.8446 11.734 14.4568
1 25.3984 12.5386 15.2588
1 26.1921 11.7449 15.2588
1 26.1794 12.5349 14.4793
1 25.4029 11.7442 14.4772
1 26.9858 12.5386 15.2588
1 27.7795 11.7449 15.2588
1 27.7385 12.5168 14.4865
1 26.9569 11.7376 14.4603
1 28.5732 12.5386 15.2588
1 29.3669 11.7449 15.2588
1 29.3136 12.5594 14.4265
1 28.5553 11.7737 14.4566
1 30 10.9512 15.2588
1 0.793701 10.1575 15.2588
1 0.835529 10.9289 14.4556
1 0.0632632 10.1544 14.4368
1 1.5874 10.9512 15.2588
1 2.3811 10.1575 15.2588
1 2.38275 10.96 14.4688
1 1.59765 10.1657 14.4529
1 3.1748 10.9512 15.2588
1 3.9685 10.1575 15.2588
1 3.96291 10.9374 14.4617
1 3.15209 10.1652 14.4738
1 4.7622 10.9512 15.2588
1 5.5559 10.1575 15.2588
1 5.55277 10.9446 14.4663
1 4.778 10.1516 14.4633
1 6.3496 10.9512 15.2588
1 7.1433 10.1575 15.2588
1 7.14181 10.9612 14.4675
1 6.38155 10.1711 14.4573
1 7.93701 10.9512 15.2588
1 8.73071 10.1575 15.2588
1 8.73013 10.9616 14.4926
1 7.91245 10.1701 14.4773
1 9.52441 10.9512 15.2588
1 10.3181 10.1575 15.2588
1 10.3038 10.9747 14.4901
1 9.52551 10.1459 14.4808
1 11.1118 10.9512 15.2588
1 11.9055 10.1575 15.2588
1 11.898 10.9613 14.4376
1 11.1014 10.1648 14.4645
1 12.6992 10.9512 15.2588
1 13.4929 10.1575 15.2588
1 13.5052 10.937 14.4771
1 12.6863 10.1664 14.4752
1 14.2866 10.9512 15.2588
1 15.0803 10.1575 15.2588
1 15.0846 10.9349 14.4866
1 14.2685 10.1488 14.4507
1 15.874 10.9512 15.2588
1 16.6677 10.1575 15.2588
1 16.6688 10.9407 14.459
1 15.8588 10.1502 14.444
1 17.4614 10.9512 15.2588
1 18.2551 10.1575 15.2588
1 18.2741 10.9317 14.4689
1 17.4661 10.1544 14.4866
1 19.0488 10.9512 15.2588
1 19.8425 10.1575 15.2588
1 19.8602 10.9671 14.4674
1 19.0571 10.1477 14.4952
1 20.6362 10.9512 15.2588
1 21.4299 10.1575 15.2588
1 21.4445 10.9679 14.4704
1 20.6282 10.1712 14.4772
1 22.2236 10.9512 15.2588
1 23.0173 10.1575 15.2588
1 23.0265 10.9522 14.4681
1 22.2387 10.1639 14.4852
1 23.811 10.9512 15.2588
1 24.6047 10.1575 15.2588
1 24.6028 10.9662 14.4566
1 23.8038 10.1749 14.483
1 25.3984 10.9512 15.2588
1 26.1921 10.1575 15.2588
1 26.1638 10.9446 14.4699
1 25.3872 10.1654 14.4579
1 26.9858 10.9512 15.2588
1 27.7795 10.1575 15.2588
1 27.76 10.9704 14.4379
1 26.9649 10.1453 14.4694
1 28.5732 10.9512 15.2588
1 29.3669 10.1575 15.2588
1 29.303 10.963 14.4424
1 28.5235 10.1609 14.4773
1 30 9.36379 15.2588
1 0.793701 8.57009 15.2588
1 0.816791 9.37222 14.4496
1 0.0479232 8.58125 14.469
1 1.5874 9.36379 15.2588
1 2.3811 8.57009 15.2588
1 2.37503 9.34648 14.4339
1 1.59375 8.588 14.461
1 3.1748 9.36379 15.2588
1 3.9685 8.57009 15.2588
1 3.98077 9.39333 14.4626
1 3.18789 8.59508 14.4544
1 4.7622 9.36379 15.2588
1 5.5559 8.57009 15.2588
1 5.5472 9.36199 14.458
1 4.75703 8.57117 14.4803
1 6.3496 9.36379 15.2588
1 7.1433 8.57009 15.2588
1 7.1526 9.36274 14.4523
1 6.35412 8.58652 14.4427
1 7.93701 9.36379 15.2588
1 8.73071 8.57009 15.2588
1 8.74706 9.35668 14.4717
1 7.94744 8.56209 14.4753
1 9.52441 9.36379 15.2588
1 10.3181 8.57009 15.2588
1 10.3045 9.36657 14.4737
1 9.55751 8.56387 14.4531
1 11.1118 9.36379 15.2588
1 11.9055 8.57009 15.2588
1 11.8801 9.37667 14.4811
1 11.107 8.56554 14.4704
1 12.6992 9.36379 15.2588
1 13.4929 8.57009 15.2588
1 13.4726 9.31746 14.4471
1 12.6995 8.55416 14.461
1 14.2866 9.36379 15.2588
1 15.0803 8.57009 15.2588
1 15.0595 9.32715 14.4459
1 14.2802 8.57582 14.4669
1 15.874 9.36379 15.2588
1 16.6677 8.57009 15.2588
1 16.662 9.3709 14.4558
1 15.8701 8.56064 14.4642
1 17.4614 9.36379 15.2588
1 18.2551 8.57009 15.2588
1 18.2566 9.37195 14.4761
1 17.472 8.57408 14.4711
1 19.0488 9.36379 15.2588
1 19.8425 8.57009 15.2588
1 19.8411 9.36173 14.4831
1 19.0493 8.56972 14.446
1 20.6362 9.36379 15.2588
1 21.4299 8.57009 15.2588
1 21.4371 9.3844 14.4707
1 20.6409 8.57821 14.4635
1 22.2236 9.36379 15.2588
1 23.0173 8.57009 15.2588
1 23.0349 9.37697 14.4624
1 22.2095 8.59917 14.455
1 23.811 9.36379 15.2588
1 24.6047 8.57009 15.2588
1 24.5819 9.37748 14.4847
1 23.8207 8.56459 14.4598
1 25.3984 9.36379 15.2588
1 26.1921 8.57009 15.2588
1 26.1966 9.35066 14.4562
1 25.4045 8.60452 14.4566
1 26.9858 9.36379 15.2588
1 27.7795 8.57009 15.2588
1 27.7505 9.37355 14.4564
1 26.9643 8.56749 14.4551
1 28.5732 9.36379 15.2588
1 29.3669 8.57009 15.2588
1 29.2746 9.36069 14.4536
1 28.5197 8.56794 14.4481
1 30 7.77639 15.2588
1 0.793701 6.98268 15.2588
1 0.814564 7.75294 14.473
1 0.0623062 6.98233 14.4221
1 1.5874 7.77639 15.2588
1 2.3811 6.98268 15.2588
1 2.37948 7.79179 14.4715
1 1.61768 6.9924 14.4634
1 3.1748 7.77639 15.2588
1 3.9685 6.98268 15.2588
1 3.99995 7.78583 14.4637
1 3.19557 6.9751 14.4635
1 4.7622 7.77639 15.2588
1 5.5559 6.98268 15.2588
1 5.58462 7.76277 14.4557
1 4.76909 6.97794 14.4537
1 6.3496 7.77639 15.2588
1 7.1433 6.98268 15.2588
1 7.16206 7.77518 14.4397
1 6.36874 6.98715 14.4817
1 7.93701 7.77639 15.2588
1 8.73071 6.98268 15.2588
1 8.72414 7.78996 14.4659
1 7.94769 6.98804 14.4381
1 9.52441 7.77639 15.2588
1 10.3181 6.98268 15.2588
1 10.313 7.77535 14.476
1 9.52437 6.98986 14.4723
1 11.1118 7.77639 15.2588
1 11.9055 6.98268 15.2588
1 11.8889 7.77397 14.4605
1 11.1038 6.98843 14.487
1 12.6992 7.77639 15.2588
1 13.4929 6.98268 15.2588
1 13.5218 7.78698 14.4688
1 12.7162 7.02752 14.4394
1 14.2866 7.77639 15.2588
1 15.0803 6.98268 15.2588
1 15.0808 7.7546 14.4535
1 14.2569 6.96635 14.4377
1 15.874 7.77639 15.2588
1 16.6677 6.98268 15.2588
1 16.6762 7.76658 14.4808
1 15.8589 6.97073 14.4516
1 17.4614 7.77639 15.2588
1 18.2551 6.98268 15.2588
1 18.2816 7.78463 14.462
1 17.4522 7.00215 14.4579
1 19.0488 7.77639 15.2588
1 19.8425 6.98268 15.2588
1 19.8615 7.76552 14.4649
1 19.0567 6.99872 14.4467
1 20.6362 7.77639 15.2588
1 21.4299 6.98268 15.2588
1 21.441 7.80139 14.4866
1 20.6568 6.99176 14.4714
1 22.2236 7.77639 15.2588
1 23.0173 6.98268 15.2588
1 22.9963 7.79824 14.4761
1 22.2063 6.98778 14.454
1 23.811 7.77639 15.2588
1 24.6047 6.98268 15.2588
1 24.6025 7.77783 14.4547
1 23.7848 6.98094 14.459
1 25.3984 7.77639 15.2588
1 26.1921 6.98268 15.2588
1 26.1952 7.77841 14.452
1 25.4005 6.97818 14.4918
1 26.9858 7.77639 15.2588
1 27.7795 6.98268 15.2588
1 27.7474 7.77856 14.47
1 26.9788 6.97527 14.4632
1 28.5732 7.77639 15.2588
1 29.3669 6.98268 15.2588
1 29.2903 7.76616 14.4564
1 28.5283 6.98693 14.4482
1 30 6.18898 15.2588
1 0.793701 5.39528 15.2588
1 0.855899 6.17142 14.4442
1 0.0637392 5.39816 14.4271
1 1.5874 6.18898 15.2588
1 2.3811 5.39528 15.2588
1 2.39205 6.19952 14.4663
1 1.60602 5.40393 14.4547
1 3.1748 6.18898 15.2588
1 3.9685 5.39528 15.2588
1 3.97311 6.20179 14.4716
1 3.1649 5.39348 14.4579
1 4.7622 6.18898 15.2588
1 5.5559 5.39528 15.2588
1 5.57013 6.18987 14.4871
1 4.76479 5.38822 14.4474
1 6.3496 6.18898 15.2588
1 7.1433 5.39528 15.2588
1 7.15062 6.14118 14.4598
1 6.33145 5.391 14.4803
1 7.93701 6.18898 15.2588
1 8.73071 5.39528 15.2588
1 8.73407 6.19967 14.4524
1 7.94436 5.39434 14.4418
1 9.52441 6.18898 15.2588