9376
Atoms. Timestep: 40000
1 7.5 3.55271e-15 10.9386
1 8.2937 29.2063 10.9386
1 8.34358 29.9354 10.0954
1 7.55974 29.1736 10.0777
1 9.0874 3.55271e-15 10.9386
1 9.8811 29.2063 10.9386
1 9.88982 29.9208 10.0901
1 9.10425 29.1806 10.1239
1 10.6748 3.55271e-15 10.9386
1 11.4685 29.2063 10.9386
1 11.4478 29.9149 10.1113
1 10.6789 29.1809 10.1567
1 12.2622 3.55271e-15 10.9386
1 13.0559 29.2063 10.9386
1 13.065 29.9296 10.113
1 12.2709 29.1699 10.1652
1 13.8496 3.55271e-15 10.9386
1 14.6433 29.2063 10.9386
1 14.6235 29.9147 10.1131
1 13.8466 29.1746 10.1347
1 15.437 3.55271e-15 10.9386
1 16.2307 29.2063 10.9386
1 16.2475 29.9484 10.0898
1 15.4337 29.1812 10.149
1 17.0244 3.55271e-15 10.9386
1 17.8181 29.2063 10.9386
1 17.8302 29.9278 10.1142
1 17.0307 29.1835 10.1358
1 18.6118 3.55271e-15 10.9386
1 19.4055 29.2063 10.9386
1 19.414 29.9382 10.1043
1 18.6272 29.1877 10.137
1 20.1992 3.55271e-15 10.9386
1 20.9929 29.2063 10.9386
1 20.9833 29.9467 10.1221
1 20.1844 29.1661 10.1383
1 21.7866 3.55271e-15 10.9386
1 22.5803 29.2063 10.9386
1 22.574 29.9289 10.1009
1 21.7883 29.1925 10.1477
1 23.374 3.55271e-15 10.9386
1 24.1677 29.2063 10.9386
1 24.1803 29.9555 10.1276
1 23.3935 29.1674 10.145
1 24.9614 3.55271e-15 10.9386
1 25.7551 29.2063 10.9386
1 25.7711 29.921 10.1015
1 24.9525 29.1804 10.1254
1 26.5488 3.55271e-15 10.9386
1 27.3425 29.2063 10.9386
1 27.3582 29.9469 10.1139
1 26.5563 29.1592 10.1349
1 28.1362 3.55271e-15 10.9386
1 28.9299 29.2063 10.9386
1 28.9253 29.9476 10.1271
1 28.1376 29.1672 10.1188
1 29.7236 3.55271e-15 10.9386
1 0.517315 29.2063 10.9386
1 0.521706 29.9315 10.1098
1 29.746 29.1966 10.1253
1 1.31102 3.55271e-15 10.9386
1 2.10472 29.2063 10.9386
1 2.08431 29.9373 10.099
1 1.29801 29.1837 10.1458
1 2.89842 3.55271e-15 10.9386
1 3.69212 29.2063 10.9386
1 3.69558 29.9354 10.1035
1 2.88831 29.1716 10.1482
1 4.48582 3.55271e-15 10.9386
1 5.27952 29.2063 10.9386
1 5.25588 29.9385 10.1225
1 4.47935 29.16 10.1496
1 6.07322 3.55271e-15 10.9386
1 6.86692 29.2063 10.9386
1 6.81451 29.9308 10.0512
1 6.04684 29.1573 10.1597
1 7.5 28.4126 10.9386
1 8.2937 27.6189 10.9386
1 8.33115 28.3927 10.1583
1 7.56024 27.6274 10.1112
1 9.0874 28.4126 10.9386
1 9.8811 27.6189 10.9386
1 9.90823 28.3882 10.1534
1 9.12709 27.6158 10.1568
1 10.6748 28.4126 10.9386
1 11.4685 27.6189 10.9386
1 11.4904 28.3992 10.1378
1 10.6732 27.6179 10.1403
1 12.2622 28.4126 10.9386
1 13.0559 27.6189 10.9386
1 13.0747 28.3797 10.1528
1 12.2424 27.5873 10.1379
1 13.8496 28.4126 10.9386
1 14.6433 27.6189 10.9386
1 14.6538 28.3785 10.1436
1 13.8759 27.6026 10.1471
1 15.437 28.4126 10.9386
1 16.2307 27.6189 10.9386
1 16.2609 28.4037 10.1363
1 15.4513 27.6268 10.1289
1 17.0244 28.4126 10.9386
1 17.8181 27.6189 10.9386
1 17.8238 28.4144 10.1406
1 17.0276 27.6109 10.1478
1 18.6118 28.4126 10.9386
1 19.4055 27.6189 10.9386
1 19.4203 28.3801 10.147
1 18.565 27.6159 10.15
1 20.1992 28.4126 10.9386
1 20.9929 27.6189 10.9386
1 20.9798 28.3993 10.1336
1 20.2012 27.6041 10.1508
1 21.7866 28.4126 10.9386
1 22.5803 27.6189 10.9386
1 22.6017 28.4198 10.1484
1 21.7949 27.6166 10.1364
1 23.374 28.4126 10.9386
1 24.1677 27.6189 10.9386
1 24.1701 28.3934 10.1562
1 23.3611 27.6161 10.1464
1 24.9614 28.4126 10.9386
1 25.7551 27.6189 10.9386
1 25.7295 28.4265 10.1387
1 24.9372 27.6008 10.1125
1 26.5488 28.4126 10.9386
1 27.3425 27.6189 10.9386
1 27.3242 28.3687 10.1585
1 26.5243 27.5967 10.1268
1 28.1362 28.4126 10.9386
1 28.9299 27.6189 10.9386
1 28.9283 28.3989 10.1426
1 28.1422 27.606 10.1411
1 29.7236 28.4126 10.9386
1 0.517315 27.6189 10.9386
1 0.518236 28.4046 10.1458
1 29.7305 27.5868 10.1415
1 1.31102 28.4126 10.9386
1 2.10472 27.6189 10.9386
1 2.10913 28.3918 10.14
1 1.31473 27.6208 10.1533
1 2.89842 28.4126 10.9386
1 3.69212 27.6189 10.9386
1 3.67204 28.3567 10.1333
1 2.8923 27.6126 10.1632
1 4.48582 28.4126 10.9386
1 5.27952 27.6189 10.9386
1 5.28649 28.3722 10.1533
1 4.48393 27.5846 10.1498
1 6.07322 28.4126 10.9386
1 6.86692 27.6189 10.9386
1 6.81751 28.3751 10.1252
1 6.03884 27.6115 10.1435
1 7.5 26.8252 10.9386
1 8.2937 26.0315 10.9386
1 8.29796 26.828 10.146
1 7.57517 26.0492 10.1225
1 9.0874 26.8252 10.9386
1 9.8811 26.0315 10.9386
1 9.89881 26.7986 10.1714
1 9.081 26.0458 10.148
1 10.6748 26.8252 10.9386
1 11.4685 26.0315 10.9386
1 11.4684 26.8347 10.1135
1 10.6952 26.0115 10.1411
1 12.2622 26.8252 10.9386
1 13.0559 26.0315 10.9386
1 13.085 26.8164 10.1596
1 12.2932 26.019 10.1377
1 13.8496 26.8252 10.9386
1 14.6433 26.0315 10.9386
1 14.6861 26.8301 10.1363
1 13.8693 26.0319 10.1373
1 15.437 26.8252 10.9386
1 16.2307 26.0315 10.9386
1 16.2509 26.824 10.121
1 15.4344 26.016 10.146
1 17.0244 26.8252 10.9386
1 17.8181 26.0315 10.9386
1 17.8391 26.8008 10.1392
1 17.0143 26.0256 10.1228
1 18.6118 26.8252 10.9386
1 19.4055 26.0315 10.9386
1 19.3927 26.7999 10.1416
1 18.6226 26.0024 10.1548
1 20.1992 26.8252 10.9386
1 20.9929 26.0315 10.9386
1 21.0071 26.8294 10.1236
1 20.1979 26.0297 10.151
1 21.7866 26.8252 10.9386
1 22.5803 26.0315 10.9386
1 22.5547 26.805 10.1219
1 21.806 26.0433 10.1392
1 23.374 26.8252 10.9386
1 24.1677 26.0315 10.9386
1 24.1261 26.8055 10.1667
1 23.3736 26.0039 10.143
1 24.9614 26.8252 10.9386
1 25.7551 26.0315 10.9386
1 25.7402 26.8251 10.1495
1 24.9612 26.0203 10.1403
1 26.5488 26.8252 10.9386
1 27.3425 26.0315 10.9386
1 27.3319 26.8109 10.1397
1 26.5467 26.0097 10.1357
1 28.1362 26.8252 10.9386
1 28.9299 26.0315 10.9386
1 28.9367 26.8268 10.1402
1 28.1495 26.0081 10.1625
1 29.7236 26.8252 10.9386
1 0.517315 26.0315 10.9386
1 0.531424 26.8222 10.133
1 29.7292 26.0501 10.1422
1 1.31102 26.8252 10.9386
1 2.10472 26.0315 10.9386
1 2.11964 26.8033 10.1682
1 1.31274 26.0137 10.1668
1 2.89842 26.8252 10.9386
1 3.69212 26.0315 10.9386
1 3.67705 26.811 10.1391
1 2.92582 26.0089 10.1612
1 4.48582 26.8252 10.9386
1 5.27952 26.0315 10.9386
1 5.24789 26.7961 10.1341
1 4.45041 26.0186 10.1517
1 6.07322 26.8252 10.9386
1 6.86692 26.0315 10.9386
1 6.78162 26.8249 10.125
1 6.04172 26.0198 10.1469
1 7.5 25.2378 10.9386
1 8.2937 24.4441 10.9386
1 8.30055 25.1944 10.1258
1 7.57755 24.4222 10.1251
1 9.0874 25.2378 10.9386
1 9.8811 24.4441 10.9386
1 9.88714 25.2354 10.1693
1 9.1219 24.447 10.1628
1 10.6748 25.2378 10.9386
1 11.4685 24.4441 10.9386
1 11.4863 25.2169 10.1644
1 10.6791 24.4623 10.1447
1 12.2622 25.2378 10.9386
1 13.0559 24.4441 10.9386
1 13.079 25.2297 10.1406
1 12.2708 24.4199 10.1375
1 13.8496 25.2378 10.9386
1 14.6433 24.4441 10.9386
1 14.624 25.2239 10.154
1 13.8461 24.4281 10.1582
1 15.437 25.2378 10.9386
1 16.2307 24.4441 10.9386
1 16.2235 25.2479 10.1253
1 15.4358 24.4354 10.1394
1 17.0244 25.2378 10.9386
1 17.8181 24.4441 10.9386
1 17.8137 25.2222 10.1411
1 17.0405 24.4531 10.1092
1 18.6118 25.2378 10.9386
1 19.4055 24.4441 10.9386
1 19.4275 25.2337 10.15
1 18.6193 24.4261 10.1586
1 20.1992 25.2378 10.9386
1 20.9929 24.4441 10.9386
1 20.9987 25.2336 10.1454
1 20.2094 24.4463 10.1395
1 21.7866 25.2378 10.9386
1 22.5803 24.4441 10.9386
1 22.5848 25.236 10.1308
1 21.7929 24.4489 10.1387
1 23.374 25.2378 10.9386
1 24.1677 24.4441 10.9386
1 24.1611 25.2333 10.1409
1 23.3952 24.4283 10.1556
1 24.9614 25.2378 10.9386
1 25.7551 24.4441 10.9386
1 25.7647 25.2283 10.1569
1 24.9555 24.4414 10.1303
1 26.5488 25.2378 10.9386
1 27.3425 24.4441 10.9386
1 27.3376 25.2345 10.1439
1 26.5455 24.4377 10.1379
1 28.1362 25.2378 10.9386
1 28.9299 24.4441 10.9386
1 28.9385 25.2587 10.1544
1 28.1439 24.404 10.152
1 29.7236 25.2378 10.9386
1 0.517315 24.4441 10.9386
1 0.51975 25.2305 10.12
1 29.7289 24.4675 10.1619
1 1.31102 25.2378 10.9386
1 2.10472 24.4441 10.9386
1 2.10838 25.2211 10.1458
1 1.30177 24.4359 10.1471
1 2.89842 25.2378 10.9386
1 3.69212 24.4441 10.9386
1 3.69227 25.2231 10.152
1 2.90746 24.4443 10.1511
1 4.48582 25.2378 10.9386
1 5.27952 24.4441 10.9386
1 5.26376 25.2303 10.1244
1 4.48731 24.4462 10.125
1 6.07322 25.2378 10.9386
1 6.86692 24.4441 10.9386
1 6.79526 25.2421 10.124
1 6.06313 24.4416 10.1294
1 7.5 23.6504 10.9386
1 8.2937 22.8567 10.9386
1 8.34508 23.6169 10.1354
1 7.5911 22.833 10.1335
1 9.0874 23.6504 10.9386
1 9.8811 22.8567 10.9386
1 9.89033 23.6696 10.1407
1 9.10863 22.8665 10.1346
1 10.6748 23.6504 10.9386
1 11.4685 22.8567 10.9386
1 11.4697 23.6356 10.1574
1 10.681 22.8358 10.1479
1 12.2622 23.6504 10.9386
1 13.0559 22.8567 10.9386
1 13.0759 23.6407 10.1306
1 12.2676 22.8409 10.1293
1 13.8496 23.6504 10.9386
1 14.6433 22.8567 10.9386
1 14.6374 23.6548 10.1588
1 13.8201 22.8672 10.1491
1 15.437 23.6504 10.9386
1 16.2307 22.8567 10.9386
1 16.2321 23.6482 10.1676
1 15.4312 22.8703 10.1188
1 17.0244 23.6504 10.9386
1 17.8181 22.8567 10.9386
1 17.8016 23.638 10.1472
1 17.0321 22.8467 10.1622
1 18.6118 23.6504 10.9386
1 19.4055 22.8567 10.9386
1 19.4317 23.6297 10.1568
1 18.6118 22.8399 10.1455
1 20.1992 23.6504 10.9386
1 20.9929 22.8567 10.9386
1 20.9919 23.6502 10.1486
1 20.2176 22.8578 10.146
1 21.7866 23.6504 10.9386
1 22.5803 22.8567 10.9386
1 22.5731 23.6644 10.1691
1 21.7838 22.8481 10.1341
1 23.374 23.6504 10.9386
1 24.1677 22.8567 10.9386
1 24.1454 23.644 10.1377
1 23.3635 22.8401 10.1387
1 24.9614 23.6504 10.9386
1 25.7551 22.8567 10.9386
1 25.7463 23.6503 10.1436
1 24.9788 22.8478 10.1315
1 26.5488 23.6504 10.9386
1 27.3425 22.8567 10.9386
1 27.3494 23.6499 10.1356
1 26.586 22.8404 10.1589
1 28.1362 23.6504 10.9386
1 28.9299 22.8567 10.9386
1 28.9396 23.6291 10.1274
1 28.1515 22.8627 10.1712
1 29.7236 23.6504 10.9386
1 0.517315 22.8567 10.9386
1 0.525232 23.6674 10.1441
1 29.7346 22.8358 10.1349
1 1.31102 23.6504 10.9386
1 2.10472 22.8567 10.9386
1 2.09992 23.6575 10.168
1 1.31976 22.848 10.1591
1 2.89842 23.6504 10.9386
1 3.69212 22.8567 10.9386
1 3.71058 23.6268 10.1551
1 2.92909 22.8363 10.1437
1 4.48582 23.6504 10.9386
1 5.27952 22.8567 10.9386
1 5.27067 23.661 10.1436
1 4.49733 22.8501 10.1321
1 6.07322 23.6504 10.9386
1 6.86692 22.8567 10.9386
1 6.80678 23.6263 10.1129
1 6.01066 22.8412 10.1409
1 7.5 22.063 10.9386
1 8.2937 21.2693 10.9386
1 8.3281 22.0285 10.1334
1 7.57554 21.2522 10.0952
1 9.0874 22.063 10.9386
1 9.8811 21.2693 10.9386
1 9.9079 22.0557 10.1667
1 9.09374 21.2591 10.1463
1 10.6748 22.063 10.9386
1 11.4685 21.2693 10.9386
1 11.4817 22.0581 10.1571
1 10.7035 21.2737 10.1673
1 12.2622 22.063 10.9386
1 13.0559 21.2693 10.9386
1 13.0294 22.0624 10.1432
1 12.268 21.2695 10.124
1 13.8496 22.063 10.9386
1 14.6433 21.2693 10.9386
1 14.6372 22.0641 10.1388
1 13.83 21.2662 10.1596
1 15.437 22.063 10.9386
1 16.2307 21.2693 10.9386
1 16.2427 22.0576 10.1474
1 15.4201 21.2658 10.1456
1 17.0244 22.063 10.9386
1 17.8181 21.2693 10.9386
1 17.813 22.0407 10.1558
1 17.0216 21.2796 10.149
1 18.6118 22.063 10.9386
1 19.4055 21.2693 10.9386
1 19.397 22.0934 10.1611
1 18.6187 21.2476 10.1317
1 20.1992 22.063 10.9386
1 20.9929 21.2693 10.9386
1 20.9885 22.0737 10.143
1 20.1984 21.2761 10.1612
1 21.7866 22.063 10.9386
1 22.5803 21.2693 10.9386
1 22.5837 22.0649 10.1326
1 21.7868 21.2608 10.1385
1 23.374 22.063 10.9386
1 24.1677 21.2693 10.9386
1 24.1735 22.0804 10.1414
1 23.3546 21.2677 10.1227
1 24.9614 22.063 10.9386
1 25.7551 21.2693 10.9386
1 25.7441 22.0639 10.1346
1 24.9943 21.2749 10.127
1 26.5488 22.063 10.9386
1 27.3425 21.2693 10.9386
1 27.3642 22.06 10.1526
1 26.5372 21.2646 10.1912
1 28.1362 22.063 10.9386
1 28.9299 21.2693 10.9386
1 28.944 22.0561 10.1445
1 28.1519 21.2567 10.1308
1 29.7236 22.063 10.9386
1 0.517315 21.2693 10.9386
1 0.559308 22.0424 10.1339
1 29.7534 21.2782 10.1359
1 1.31102 22.063 10.9386
1 2.10472 21.2693 10.9386
1 2.11198 22.0985 10.1751
1 1.35327 21.2736 10.1466
1 2.89842 22.063 10.9386
1 3.69212 21.2693 10.9386
1 3.69905 22.0752 10.1291
1 2.87627 21.263 10.1529
1 4.48582 22.063 10.9386
1 5.27952 21.2693 10.9386
1 5.24857 22.045 10.1291
1 4.48636 21.2744 10.1659
1 6.07322 22.063 10.9386
1 6.86692 21.2693 10.9386
1 6.81236 22.0731 10.1042
1 6.03578 21.2661 10.1468
1 7.5 20.4756 10.9386
1 8.2937 19.6819 10.9386
1 8.31753 20.4573 10.158
1 7.54114 19.6689 10.1184
1 9.0874 20.4756 10.9386
1 9.8811 19.6819 10.9386
1 9.86417 20.4658 10.1445
1 9.1059 19.6741 10.147
1 10.6748 20.4756 10.9386
1 11.4685 19.6819 10.9386
1 11.4783 20.4902 10.168
1 10.6514 19.6916 10.147
1 12.2622 20.4756 10.9386
1 13.0559 19.6819 10.9386
1 13.0635 20.4814 10.1499
1 12.2576 19.6808 10.1339
1 13.8496 20.4756 10.9386
1 14.6433 19.6819 10.9386
1 14.6233 20.4687 10.1455
1 13.853 19.6885 10.1389
1 15.437 20.4756 10.9386
1 16.2307 19.6819 10.9386
1 16.2362 20.4933 10.1481
1 15.4358 19.675 10.1636
1 17.0244 20.4756 10.9386
1 17.8181 19.6819 10.9386
1 17.8343 20.4723 10.1746
1 17.0262 19.6807 10.1591
1 18.6118 20.4756 10.9386
1 19.4055 19.6819 10.9386
1 19.4066 20.4439 10.1505
1 18.6096 19.6918 10.1799
1 20.1992 20.4756 10.9386
1 20.9929 19.6819 10.9386
1 21.0173 20.461 10.1244
1 20.208 19.6862 10.1631
1 21.7866 20.4756 10.9386
1 22.5803 19.6819 10.9386
1 22.6002 20.5022 10.14
1 21.805 19.6909 10.1365
1 23.374 20.4756 10.9386
1 24.1677 19.6819 10.9386
1 24.1638 20.497 10.1114
1 23.3585 19.6903 10.1314
1 24.9614 20.4756 10.9386
1 25.7551 19.6819 10.9386
1 25.7327 20.4783 10.1427
1 24.9544 19.6764 10.146
1 26.5488 20.4756 10.9386
1 27.3425 19.6819 10.9386
1 27.3382 20.4895 10.1536
1 26.5555 19.7047 10.149
1 28.1362 20.4756 10.9386
1 28.9299 19.6819 10.9386
1 28.9305 20.4844 10.1448
1 28.1282 19.7079 10.1577
1 29.7236 20.4756 10.9386
1 0.517315 19.6819 10.9386
1 0.512152 20.4946 10.1461
1 29.7365 19.6825 10.1465
1 1.31102 20.4756 10.9386
1 2.10472 19.6819 10.9386
1 2.10764 20.4984 10.1308
1 1.3069 19.661 10.143
1 2.89842 20.4756 10.9386
1 3.69212 19.6819 10.9386
1 3.66599 20.4619 10.1509
1 2.88286 19.674 10.167
1 4.48582 20.4756 10.9386
1 5.27952 19.6819 10.9386
1 5.23465 20.4686 10.1253
1 4.45442 19.6746 10.1303
1 6.07322 20.4756 10.9386
1 6.86692 19.6819 10.9386
1 6.80806 20.467 10.1314
1 6.05837 19.675 10.1465
1 7.5 18.8882 10.9386
1 8.2937 18.0945 10.9386
1 8.30142 18.8909 10.1293
1 7.58214 18.1016 10.1113
1 9.0874 18.8882 10.9386
1 9.8811 18.0945 10.9386
1 9.91318 18.8822 10.1707
1 9.11333 18.0902 10.1347
1 10.6748 18.8882 10.9386
1 11.4685 18.0945 10.9386
1 11.458 18.9277 10.1543
1 10.6723 18.0953 10.1538
1 12.2622 18.8882 10.9386
1 13.0559 18.0945 10.9386
1 13.0521 18.8997 10.1329
1 12.2409 18.1052 10.1425
1 13.8496 18.8882 10.9386
1 14.6433 18.0945 10.9386
1 14.6554 18.93 10.1233
1 13.8603 18.1079 10.1664
1 15.437 18.8882 10.9386
1 16.2307 18.0945 10.9386
1 16.2366 18.8918 10.1424
1 15.441 18.1075 10.1266
1 17.0244 18.8882 10.9386
1 17.8181 18.0945 10.9386
1 17.7989 18.873 10.1502
1 17.0408 18.0841 10.1273
1 18.6118 18.8882 10.9386
1 19.4055 18.0945 10.9386
1 19.3988 18.9021 10.1603
1 18.6197 18.0882 10.1549
1 20.1992 18.8882 10.9386
1 20.9929 18.0945 10.9386
1 20.9946 18.887 10.1462
1 20.2096 18.096 10.1691
1 21.7866 18.8882 10.9386
1 22.5803 18.0945 10.9386
1 22.5752 18.9217 10.1297
1 21.7948 18.1066 10.1752
1 23.374 18.8882 10.9386
1 24.1677 18.0945 10.9386
1 24.1366 18.8954 10.1585
1 23.3592 18.1092 10.1502
1 24.9614 18.8882 10.9386
1 25.7551 18.0945 10.9386
1 25.7404 18.8981 10.1405
1 24.977 18.0969 10.135
1 26.5488 18.8882 10.9386
1 27.3425 18.0945 10.9386
1 27.3337 18.8999 10.15
1 26.5427 18.0914 10.1532
1 28.1362 18.8882 10.9386
1 28.9299 18.0945 10.9386
1 28.9291 18.9147 10.1466
1 28.106 18.1151 10.1332
1 29.7236 18.8882 10.9386
1 0.517315 18.0945 10.9386
1 0.480971 18.8828 10.1415
1 29.7276 18.1001 10.1429
1 1.31102 18.8882 10.9386
1 2.10472 18.0945 10.9386
1 2.0804 18.8775 10.1404
1 1.3123 18.107 10.1685
1 2.89842 18.8882 10.9386
1 3.69212 18.0945 10.9386
1 3.67861 18.8948 10.1775
1 2.90776 18.0958 10.1415
1 4.48582 18.8882 10.9386
1 5.27952 18.0945 10.9386
1 5.24594 18.8999 10.1259
1 4.47621 18.0995 10.1549
1 6.07322 18.8882 10.9386
1 6.86692 18.0945 10.9386
1 6.81173 18.9125 10.1143
1 6.05006 18.0948 10.1286
1 7.5 17.3008 10.9386
1 8.2937 16.5071 10.9386
1 8.32435 17.308 10.1497
1 7.53872 16.5264 10.1217
1 9.0874 17.3008 10.9386
1 9.8811 16.5071 10.9386
1 9.9109 17.2964 10.1321
1 9.13718 16.507 10.1307
1 10.6748 17.3008 10.9386
1 11.4685 16.5071 10.9386
1 11.4644 17.3014 10.1567
1 10.6748 16.4906 10.1408
1 12.2622 17.3008 10.9386
1 13.0559 16.5071 10.9386
1 13.076 17.3131 10.1705
1 12.2633 16.5154 10.1605
1 13.8496 17.3008 10.9386
1 14.6433 16.5071 10.9386
1 14.6643 17.278 10.1512
1 13.8387 16.4972 10.1498
1 15.437 17.3008 10.9386
1 16.2307 16.5071 10.9386
1 16.2198 17.319 10.1184
1 15.4589 16.494 10.1132
1 17.0244 17.3008 10.9386
1 17.8181 16.5071 10.9386
1 17.8318 17.3 10.171
1 17.0412 16.5132 10.1176
1 18.6118 17.3008 10.9386
1 19.4055 16.5071 10.9386
1 19.4209 17.3165 10.1558
1 18.6291 16.4838 10.1682
1 20.1992 17.3008 10.9386
1 20.9929 16.5071 10.9386
1 21.001 17.2792 10.1549
1 20.1965 16.4978 10.1433
1 21.7866 17.3008 10.9386
1 22.5803 16.5071 10.9386
1 22.573 17.3025 10.1593
1 21.7804 16.4918 10.1526
1 23.374 17.3008 10.9386
1 24.1677 16.5071 10.9386
1 24.1879 17.3092 10.156
1 23.3954 16.4922 10.1561
1 24.9614 17.3008 10.9386
1 25.7551 16.5071 10.9386
1 25.7663 17.3033 10.1618
1 24.9738 16.5031 10.1396
1 26.5488 17.3008 10.9386
1 27.3425 16.5071 10.9386
1 27.3553 17.3024 10.1492
1 26.5642 16.5046 10.1716
1 28.1362 17.3008 10.9386
1 28.9299 16.5071 10.9386
1 28.9076 17.307 10.1419
1 28.1011 16.5275 10.1614
1 29.7236 17.3008 10.9386
1 0.517315 16.5071 10.9386
1 0.518878 17.3079 10.1507
1 29.7357 16.5123 10.1298
1 1.31102 17.3008 10.9386
1 2.10472 16.5071 10.9386
1 2.11629 17.2861 10.151
1 1.30646 16.5054 10.1585
1 2.89842 17.3008 10.9386
1 3.69212 16.5071 10.9386
1 3.68244 17.2896 10.1452
1 2.87899 16.4944 10.1444
1 4.48582 17.3008 10.9386
1 5.27952 16.5071 10.9386
1 5.24302 17.3156 10.1517
1 4.44677 16.4937 10.1428
1 6.07322 17.3008 10.9386
1 6.86692 16.5071 10.9386
1 6.80106 17.2948 10.0991
1 6.04663 16.5054 10.1409
1 7.5 15.7134 10.9386
1 8.2937 14.9197 10.9386
1 8.33481 15.72 10.1231
1 7.57067 14.9128 10.0759
1 9.0874 15.7134 10.9386
1 9.8811 14.9197 10.9386
1 9.87443 15.6888 10.1581
1 9.09513 14.9395 10.1344
1 10.6748 15.7134 10.9386
1 11.4685 14.9197 10.9386
1 11.4905 15.7241 10.1534
1 10.6886 14.949 10.1603
1 12.2622 15.7134 10.9386
1 13.0559 14.9197 10.9386
1 13.0662 15.7129 10.1298
1 12.283 14.9062 10.1509
1 13.8496 15.7134 10.9386
1 14.6433 14.9197 10.9386
1 14.6436 15.7196 10.1087
1 13.8453 14.907 10.1252
1 15.437 15.7134 10.9386
1 16.2307 14.9197 10.9386
1 16.2288 15.7075 10.1477
1 15.4544 14.9445 10.1524
1 17.0244 15.7134 10.9386
1 17.8181 14.9197 10.9386
1 17.8257 15.7312 10.153
1 17.0606 14.9224 10.1378
1 18.6118 15.7134 10.9386
1 19.4055 14.9197 10.9386
1 19.4003 15.7161 10.1173
1 18.6289 14.9292 10.1468
1 20.1992 15.7134 10.9386
1 20.9929 14.9197 10.9386
1 21.0005 15.7077 10.1369
1 20.1944 14.9328 10.1529
1 21.7866 15.7134 10.9386
1 22.5803 14.9197 10.9386
1 22.5979 15.7116 10.1398
1 21.7968 14.9221 10.1535
1 23.374 15.7134 10.9386
1 24.1677 14.9197 10.9386
1 24.1755 15.7018 10.1516
1 23.3564 14.9243 10.1553
1 24.9614 15.7134 10.9386
1 25.7551 14.9197 10.9386
1 25.7375 15.6969 10.1656
1 24.9752 14.9136 10.1468
1 26.5488 15.7134 10.9386
1 27.3425 14.9197 10.9386
1 27.3503 15.6969 10.1351
1 26.5526 14.9354 10.1556
1 28.1362 15.7134 10.9386
1 28.9299 14.9197 10.9386
1 28.9507 15.7306 10.1493
1 28.1356 14.949 10.1531
1 29.7236 15.7134 10.9386
1 0.517315 14.9197 10.9386
1 0.523096 15.7227 10.1512
1 29.7264 14.9237 10.1374
1 1.31102 15.7134 10.9386
1 2.10472 14.9197 10.9386
1 2.11712 15.6952 10.1505
1 1.30997 14.9227 10.1642
1 2.89842 15.7134 10.9386
1 3.69212 14.9197 10.9386
1 3.67819 15.7006 10.1655
1 2.9005 14.9117 10.1464
1 4.48582 15.7134 10.9386
1 5.27952 14.9197 10.9386
1 5.2352 15.7159 10.1373
1 4.46969 14.9258 10.1569
1 6.07322 15.7134 10.9386
1 6.86692 14.9197 10.9386
1 6.79566 15.7171 10.0961
1 6.04879 14.9249 10.1519
1 7.5 14.126 10.9386
1 8.2937 13.3323 10.9386
1 8.34946 14.1201 10.1214
1 7.55792 13.3516 10.1373
1 9.0874 14.126 10.9386
1 9.8811 13.3323 10.9386
1 9.90428 14.123 10.1437
1 9.12141 13.3312 10.1406
1 10.6748 14.126 10.9386
1 11.4685 13.3323 10.9386
1 11.4728 14.1392 10.14
1 10.6778 13.3586 10.1478
1 12.2622 14.126 10.9386
1 13.0559 13.3323 10.9386
1 13.0766 14.1251 10.1481
1 12.2593 13.3087 10.1608
1 13.8496 14.126 10.9386
1 14.6433 13.3323 10.9386
1 14.6512 14.1469 10.1552
1 13.8625 13.3104 10.1364
1 15.437 14.126 10.9386
1 16.2307 13.3323 10.9386
1 16.2298 14.1485 10.1435
1 15.4291 13.3288 10.1275
1 17.0244 14.126 10.9386
1 17.8181 13.3323 10.9386
1 17.8499 14.1156 10.1234
1 17.0362 13.3489 10.1378
1 18.6118 14.126 10.9386
1 19.4055 13.3323 10.9386
1 19.4162 14.1154 10.1546
1 18.6213 13.342 10.1499
1 20.1992 14.126 10.9386
1 20.9929 13.3323 10.9386
1 20.9922 14.1488 10.1454
1 20.2136 13.3434 10.1309
1 21.7866 14.126 10.9386
1 22.5803 13.3323 10.9386
1 22.5651 14.1155 10.1592
1 21.8095 13.3435 10.1376
1 23.374 14.126 10.9386
1 24.1677 13.3323 10.9386
1 24.1718 14.1314 10.1223
1 23.3789 13.3116 10.1479
1 24.9614 14.126 10.9386
1 25.7551 13.3323 10.9386
1 25.7912 14.108 10.1386
1 24.972 13.336 10.1351
1 26.5488 14.126 10.9386
1 27.3425 13.3323 10.9386
1 27.3392 14.1347 10.1564
1 26.5689 13.3088 10.1352
1 28.1362 14.126 10.9386
1 28.9299 13.3323 10.9386
1 28.9304 14.1358 10.1412
1 28.1486 13.3267 10.1415
1 29.7236 14.126 10.9386
1 0.517315 13.3323 10.9386
1 0.516534 14.1248 10.1471
1 29.7294 13.365 10.1618
1 1.31102 14.126 10.9386
1 2.10472 13.3323 10.9386
1 2.09943 14.1137 10.1532
1 1.30514 13.3123 10.1647
1 2.89842 14.126 10.9386
1 3.69212 13.3323 10.9386
1 3.68661 14.0949 10.1646
1 2.9166 13.3206 10.1533
1 4.48582 14.126 10.9386
1 5.27952 13.3323 10.9386
1 5.2624 14.1294 10.1407
1 4.48835 13.3373 10.1583
1 6.07322 14.126 10.9386
1 6.86692 13.3323 10.9386
1 6.77677 14.1263 10.1156
1 6.0513 13.338 10.1162
1 7.5 12.5386 10.9386
1 8.2937 11.7449 10.9386
1 8.33287 12.5379 10.1584
1 7.56227 11.7489 10.1
1 9.0874 12.5386 10.9386
1 9.8811 11.7449 10.9386
1 9.90017 12.5436 10.1443
1 9.09722 11.7187 10.1151
1 10.6748 12.5386 10.9386
1 11.4685 11.7449 10.9386
1 11.4403 12.5323 10.1265
1 10.6804 11.7314 10.1317
1 12.2622 12.5386 10.9386
1 13.0559 11.7449 10.9386
1 13.0617 12.515 10.1508
1 12.2635 11.7448 10.1557
1 13.8496 12.5386 10.9386
1 14.6433 11.7449 10.9386
1 14.6377 12.5139 10.1367
1 13.8469 11.7111 10.1462
1 15.437 12.5386 10.9386
1 16.2307 11.7449 10.9386
1 16.2454 12.5431 10.1305
1 15.4436 11.7429 10.1545
1 17.0244 12.5386 10.9386
1 17.8181 11.7449 10.9386
1 17.8252 12.5555 10.1374
1 17.0289 11.7396 10.1506
1 18.6118 12.5386 10.9386
1 19.4055 11.7449 10.9386
1 19.4189 12.5601 10.129
1 18.6308 11.7696 10.1496
1 20.1992 12.5386 10.9386
1 20.9929 11.7449 10.9386
1 20.979 12.5569 10.1245
1 20.2052 11.7579 10.1627
1 21.7866 12.5386 10.9386
1 22.5803 11.7449 10.9386
1 22.5825 12.5366 10.1514
1 21.8045 11.7601 10.1371
1 23.374 12.5386 10.9386
1 24.1677 11.7449 10.9386
1 24.1786 12.5243 10.1335
1 23.37 11.764 10.1579
1 24.9614 12.5386 10.9386
1 25.7551 11.7449 10.9386
1 25.7673 12.5577 10.128
1 24.9804 11.7456 10.1653
1 26.5488 12.5386 10.9386
1 27.3425 11.7449 10.9386
1 27.3707 12.5168 10.1446
1 26.5484 11.7519 10.1617
1 28.1362 12.5386 10.9386
1 28.9299 11.7449 10.9386
1 28.9455 12.5505 10.1519
1 28.1508 11.7567 10.1405
1 29.7236 12.5386 10.9386
1 0.517315 11.7449 10.9386
1 0.512506 12.5344 10.1403
1 29.7268 11.7536 10.1452
1 1.31102 12.5386 10.9386
1 2.10472 11.7449 10.9386
1 2.09521 12.5343 10.1492
1 1.30285 11.7325 10.1515
1 2.89842 12.5386 10.9386
1 3.69212 11.7449 10.9386
1 3.6966 12.5445 10.1281
1 2.89351 11.7534 10.1605
1 4.48582 12.5386 10.9386
1 5.27952 11.7449 10.9386
1 5.25338 12.5679 10.1773
1 4.49588 11.735 10.1232
1 6.07322 12.5386 10.9386
1 6.86692 11.7449 10.9386
1 6.79719 12.5424 10.1189
1 6.04105 11.7593 10.1282
1 7.5 10.9512 10.9386
1 8.2937 10.1575 10.9386
1 8.33484 10.9751 10.1445
1 7.53808 10.1584 10.1029
1 9.0874 10.9512 10.9386
1 9.8811 10.1575 10.9386
1 9.89156 10.9704 10.1439
1 9.09712 10.1799 10.1283
1 10.6748 10.9512 10.9386
1 11.4685 10.1575 10.9386
1 11.4842 10.9564 10.1405
1 10.6852 10.148 10.1225
1 12.2622 10.9512 10.9386
1 13.0559 10.1575 10.9386
1 13.0531 10.9519 10.1379
1 12.2716 10.1461 10.144
1 13.8496 10.9512 10.9386
1 14.6433 10.1575 10.9386
1 14.6445 10.9284 10.1378
1 13.8371 10.175 10.1811
1 15.437 10.9512 10.9386
1 16.2307 10.1575 10.9386
1 16.2199 10.962 10.1538
1 15.4414 10.1861 10.1349
1 17.0244 10.9512 10.9386
1 17.8181 10.1575 10.9386
1 17.8528 10.9568 10.1623
1 17.0307 10.1902 10.1358
1 18.6118 10.9512 10.9386
1 19.4055 10.1575 10.9386
1 19.4287 10.9595 10.1468
1 18.6213 10.1434 10.1292
1 20.1992 10.9512 10.9386
1 20.9929 10.1575 10.9386
1 20.9996 10.9799 10.1373
1 20.2299 10.1741 10.1389
1 21.7866 10.9512 10.9386
1 22.5803 10.1575 10.9386
1 22.5734 10.9406 10.1522
1 21.7719 10.1595 10.1318
1 23.374 10.9512 10.9386
1 24.1677 10.1575 10.9386
1 24.1663 10.9576 10.1446
1 23.3552 10.1733 10.1479
1 24.9614 10.9512 10.9386
1 25.7551 10.1575 10.9386
1 25.7487 10.9514 10.1071
1 24.9605 10.141 10.144
1 26.5488 10.9512 10.9386
1 27.3425 10.1575 10.9386
1 27.3556 10.9677 10.1437
1 26.5474 10.1879 10.156
1 28.1362 10.9512 10.9386
1 28.9299 10.1575 10.9386
1 28.9346 10.9283 10.136
1 28.1339 10.1694 10.1362
1 29.7236 10.9512 10.9386
1 0.517315 10.1575 10.9386
1 0.50948 10.9428 10.1313
1 29.7398 10.1723 10.1645
1 1.31102 10.9512 10.9386
1 2.10472 10.1575 10.9386
1 2.09935 10.9405 10.1441
1 1.31251 10.1528 10.1312
1 2.89842 10.9512 10.9386
1 3.69212 10.1575 10.9386
1 3.71092 10.9408 10.1353
1 2.90538 10.1745 10.1616
1 4.48582 10.9512 10.9386
1 5.27952 10.1575 10.9386
1 5.26843 10.9858 10.1446
1 4.50354 10.1524 10.1443
1 6.07322 10.9512 10.9386
1 6.86692 10.1575 10.9386
1 6.81549 10.9553 10.1105
1 6.05059 10.1698 10.1631
1 7.5 9.36379 10.9386
1 8.2937 8.57009 10.9386
1 8.31279 9.34447 10.1104
1 7.56195 8.54153 10.1085
1 9.0874 9.36379 10.9386
1 9.8811 8.57009 10.9386
1 9.88614 9.37826 10.1449
1 9.11769 8.56423 10.1446
1 10.6748 9.36379 10.9386
1 11.4685 8.57009 10.9386
1 11.4634 9.37009 10.1536
1 10.6746 8.58412 10.1415
1 12.2622 9.36379 10.9386
1 13.0559 8.57009 10.9386
1 13.0566 9.35371 10.1488
1 12.281 8.56927 10.1382
1 13.8496 9.36379 10.9386
1 14.6433 8.57009 10.9386
1 14.6184 9.35532 10.1228
1 13.8413 8.57495 10.1641
1 15.437 9.36379 10.9386
1 16.2307 8.57009 10.9386
1 16.2358 9.38754 10.1338
1 15.4633 8.57598 10.1545
1 17.0244 9.36379 10.9386
1 17.8181 8.57009 10.9386
1 17.7967 9.34718 10.1517
1 17.0301 8.56641 10.1461
1 18.6118 9.36379 10.9386
1 19.4055 8.57009 10.9386
1 19.4102 9.38217 10.1535
1 18.604 8.58003 10.1657
1 20.1992 9.36379 10.9386
1 20.9929 8.57009 10.9386
1 21.0176 9.38263 10.1283
1 20.2003 8.57715 10.1397
1 21.7866 9.36379 10.9386
1 22.5803 8.57009 10.9386
1 22.5827 9.35067 10.1524
1 21.7826 8.57258 10.1392
1 23.374 9.36379 10.9386
1 24.1677 8.57009 10.9386
1 24.1569 9.35693 10.1636
1 23.3657 8.56609 10.1386
1 24.9614 9.36379 10.9386
1 25.7551 8.57009 10.9386
1 25.773 9.39227 10.1383
1 24.9805 8.5719 10.1623
1 26.5488 9.36379 10.9386
1 27.3425 8.57009 10.9386
1 27.3458 9.34976 10.1274
1 26.5458 8.57847 10.1498
1 28.1362 9.36379 10.9386
1 28.9299 8.57009 10.9386
1 28.9398 9.37644 10.182
1 28.1543 8.56286 10.1472
1 29.7236 9.36379 10.9386
1 0.517315 8.57009 10.9386
1 0.493675 9.378 10.1262
1 29.7146 8.56983 10.1356
1 1.31102 9.36379 10.9386
1 2.10472 8.57009 10.9386
1 2.12599 9.38004 10.1377
1 1.30912 8.58506 10.1544
1 2.89842 9.36379 10.9386
1 3.69212 8.57009 10.9386
1 3.71341 9.33711 10.1383
1 2.89465 8.5668 10.153
1 4.48582 9.36379 10.9386
1 5.27952 8.57009 10.9386
1 5.28765 9.35841 10.1636
1 4.49845 8.57411 10.1283
1 6.07322 9.36379 10.9386
1 6.86692 8.57009 10.9386
1 6.78314 9.38216 10.12
1 6.06661 8.55928 10.1348
1 7.5 7.77639 10.9386
1 8.2937 6.98268 10.9386
1 8.33777 7.78602 10.1283
1 7.59711 6.98156 10.0944
1 9.0874 7.77639 10.9386
1 9.8811 6.98268 10.9386
1 9.90002 7.76657 10.1707
1 9.14545 7.01051 10.1287
1 10.6748 7.77639 10.9386
1 11.4685 6.98268 10.9386
1 11.498 7.79758 10.1512
1 10.6849 6.99807 10.1387
1 12.2622 7.77639 10.9386
1 13.0559 6.98268 10.9386
1 13.0679 7.79686 10.1441
1 12.2611 7.01553 10.1487
1 13.8496 7.77639 10.9386
1 14.6433 6.98268 10.9386
1 14.6703 7.78176 10.1473
1 13.8463 6.99023 10.1526
1 15.437 7.77639 10.9386
1 16.2307 6.98268 10.9386
1 16.263 7.77131 10.1465
1 15.4484 6.99005 10.1324
1 17.0244 7.77639 10.9386
1 17.8181 6.98268 10.9386
1 17.793 7.78041 10.1269
1 17.0241 6.97599 10.1583
1 18.6118 7.77639 10.9386
1 19.4055 6.98268 10.9386
1 19.388 7.80078 10.1533
1 18.6148 6.99334 10.1501
1 20.1992 7.77639 10.9386
1 20.9929 6.98268 10.9386
1 20.9827 7.76893 10.1526
1 20.1928 6.99644 10.1517
1 21.7866 7.77639 10.9386
1 22.5803 6.98268 10.9386
1 22.5695 7.7966 10.1468
1 21.824 6.98784 10.1557
1 23.374 7.77639 10.9386
1 24.1677 6.98268 10.9386
1 24.16 7.76199 10.1606
1 23.3787 6.98244 10.1404
1 24.9614 7.77639 10.9386
1 25.7551 6.98268 10.9386
1 25.7466 7.77608 10.1611
1 24.9703 6.96002 10.1363
1 26.5488 7.77639 10.9386
1 27.3425 6.98268 10.9386
1 27.3577 7.75841 10.1361
1 26.5527 6.99909 10.1634
1 28.1362 7.77639 10.9386
1 28.9299 6.98268 10.9386
1 28.933 7.78443 10.1392
1 28.1238 6.98255 10.1588
1 29.7236 7.77639 10.9386
1 0.517315 6.98268 10.9386
1 0.510076 7.77513 10.1479
1 29.7159 6.95484 10.1558
1 1.31102 7.77639 10.9386
1 2.10472 6.98268 10.9386
1 2.11705 7.77191 10.168
1 1.31509 6.98879 10.1497
1 2.89842 7.77639 10.9386
1 3.69212 6.98268 10.9386
1 3.70376 7.77933 10.1506
1 2.89904 6.98027 10.1329
1 4.48582 7.77639 10.9386
1 5.27952 6.98268 10.9386
1 5.25523 7.75967 10.1323
1 4.46702 6.97814 10.1356
1 6.07322 7.77639 10.9386
1 6.86692 6.98268 10.9386
1 6.81255 7.76763 10.1016
1 6.06079 6.96963 10.1159
1 7.5 6.18898 10.9386
1 8.2937 5.39528 10.9386
1 8.33625 6.21033 10.1351
1 7.56018 5.41469 10.1334
1 9.0874 6.18898 10.9386
1 9.8811 5.39528 10.9386
1 9.92421 6.17924 10.1398
1 9.08034 5.40829 10.1372
1 10.6748 6.18898 10.9386
1 11.4685 5.39528 10.9386
1 11.4586 6.18404 10.1402
1 10.704 5.39609 10.1417
1 12.2622 6.18898 10.9386
1 13.0559 5.39528 10.9386
1 13.0357 6.20305 10.139
1 12.2925 5.39112 10.1788
1 13.8496 6.18898 10.9386
1 14.6433 5.39528 10.9386
1 14.6465 6.219 10.1603
1 13.8521 5.40642 10.1358
1 15.437 6.18898 10.9386
1 16.2307 5.39528 10.9386
1 16.2273 6.20391 10.1436