9376
Atoms. Timestep: 4000000
1 0.0375 3.55271e-15 10.6414
1 0.831201 29.2063 10.6414
1 0.86039 29.9359 9.81108
1 0.120247 29.1884 9.80382
1 1.6249 3.55271e-15 10.6414
1 2.4186 29.2063 10.6414
1 2.4271 29.9142 9.80951
1 1.62895 29.1673 9.87639
1 3.2123 3.55271e-15 10.6414
1 4.006 29.2063 10.6414
1 4.02703 29.9126 9.79005
1 3.18518 29.1964 9.83848
1 4.7997 3.55271e-15 10.6414
1 5.5934 29.2063 10.6414
1 5.59602 29.9198 9.83509
1 4.81373 29.1891 9.83827
1 6.3871 3.55271e-15 10.6414
1 7.1808 29.2063 10.6414
1 7.19094 29.921 9.81203
1 6.39785 29.1626 9.8211
1 7.97451 3.55271e-15 10.6414
1 8.76821 29.2063 10.6414
1 8.7664 29.9433 9.80993
1 7.98152 29.1543 9.83872
1 9.56191 3.55271e-15 10.6414
1 10.3556 29.2063 10.6414
1 10.3322 29.9366 9.78742
1 9.53569 29.1853 9.85688
1 11.1493 3.55271e-15 10.6414
1 11.943 29.2063 10.6414
1 11.9357 29.9408 9.81722
1 11.111 29.1834 9.84577
1 12.7367 3.55271e-15 10.6414
1 13.5304 29.2063 10.6414
1 13.5383 29.9558 9.80361
1 12.7347 29.1951 9.84517
1 14.3241 3.55271e-15 10.6414
1 15.1178 29.2063 10.6414
1 15.113 29.9382 9.83676
1 14.3233 29.1785 9.83904
1 15.9115 3.55271e-15 10.6414
1 16.7052 29.2063 10.6414
1 16.6976 29.9111 9.81476
1 15.9031 29.1454 9.80608
1 17.4989 3.55271e-15 10.6414
1 18.2926 29.2063 10.6414
1 18.2995 29.9224 9.82027
1 17.5167 29.1674 9.84189
1 19.0863 3.55271e-15 10.6414
1 19.88 29.2063 10.6414
1 19.8821 29.9412 9.80953
1 19.0707 29.1851 9.82688
1 20.6737 3.55271e-15 10.6414
1 21.4674 29.2063 10.6414
1 21.4733 29.9399 9.82476
1 20.688 29.1877 9.83774
1 22.2611 3.55271e-15 10.6414
1 23.0548 29.2063 10.6414
1 23.0388 29.9202 9.81955
1 22.258 29.1832 9.8311
1 23.8485 3.55271e-15 10.6414
1 24.6422 29.2063 10.6414
1 24.6686 29.9236 9.80719
1 23.8584 29.1794 9.85596
1 25.4359 3.55271e-15 10.6414
1 26.2296 29.2063 10.6414
1 26.2258 29.9443 9.79612
1 25.427 29.1618 9.83226
1 27.0233 3.55271e-15 10.6414
1 27.817 29.2063 10.6414
1 27.7966 29.9059 9.79899
1 27.0071 29.1776 9.84411
1 28.6107 3.55271e-15 10.6414
1 29.4044 29.2063 10.6414
1 29.3506 29.9408 9.78331
1 28.5806 29.2042 9.82573
1 0.0375 28.4126 10.6414
1 0.831201 27.6189 10.6414
1 0.84802 28.3882 9.86896
1 0.120092 27.5988 9.81359
1 1.6249 28.4126 10.6414
1 2.4186 27.6189 10.6414
1 2.4283 28.3969 9.84989
1 1.63495 27.6318 9.86653
1 3.2123 28.4126 10.6414
1 4.006 27.6189 10.6414
1 4.00433 28.3871 9.83789
1 3.24328 27.6219 9.83991
1 4.7997 28.4126 10.6414
1 5.5934 27.6189 10.6414
1 5.58867 28.3882 9.87632
1 4.80275 27.5841 9.86918
1 6.3871 28.4126 10.6414
1 7.1808 27.6189 10.6414
1 7.1915 28.4007 9.84225
1 6.39048 27.6202 9.86204
1 7.97451 28.4126 10.6414
1 8.76821 27.6189 10.6414
1 8.77959 28.3935 9.84185
1 7.9933 27.6233 9.84776
1 9.56191 28.4126 10.6414
1 10.3556 27.6189 10.6414
1 10.3364 28.388 9.84005
1 9.55984 27.622 9.82764
1 11.1493 28.4126 10.6414
1 11.943 27.6189 10.6414
1 11.9478 28.4099 9.82539
1 11.1627 27.5917 9.88294
1 12.7367 28.4126 10.6414
1 13.5304 27.6189 10.6414
1 13.5214 28.3977 9.84597
1 12.724 27.5964 9.82757
1 14.3241 28.4126 10.6414
1 15.1178 27.6189 10.6414
1 15.1003 28.4003 9.83875
1 14.3368 27.6055 9.85819
1 15.9115 28.4126 10.6414
1 16.7052 27.6189 10.6414
1 16.6978 28.4061 9.84967
1 15.9192 27.6195 9.84642
1 17.4989 28.4126 10.6414
1 18.2926 27.6189 10.6414
1 18.2988 28.3852 9.84232
1 17.5088 27.6079 9.84769
1 19.0863 28.4126 10.6414
1 19.88 27.6189 10.6414
1 19.888 28.4022 9.83473
1 19.0961 27.5806 9.86639
1 20.6737 28.4126 10.6414
1 21.4674 27.6189 10.6414
1 21.4646 28.3788 9.84543
1 20.6794 27.583 9.86779
1 22.2611 28.4126 10.6414
1 23.0548 27.6189 10.6414
1 23.0583 28.3655 9.84346
1 22.2443 27.6058 9.83873
1 23.8485 28.4126 10.6414
1 24.6422 27.6189 10.6414
1 24.6467 28.4091 9.8449
1 23.8724 27.6055 9.85611
1 25.4359 28.4126 10.6414
1 26.2296 27.6189 10.6414
1 26.2002 28.3897 9.8871
1 25.4303 27.646 9.84949
1 27.0233 28.4126 10.6414
1 27.817 27.6189 10.6414
1 27.8121 28.4268 9.82393
1 26.9992 27.6264 9.83515
1 28.6107 28.4126 10.6414
1 29.4044 27.6189 10.6414
1 29.3515 28.3915 9.80395
1 28.5427 27.5951 9.82771
1 0.0375 26.8252 10.6414
1 0.831201 26.0315 10.6414
1 0.836526 26.8626 9.83374
1 0.0822115 26.0234 9.82592
1 1.6249 26.8252 10.6414
1 2.4186 26.0315 10.6414
1 2.39573 26.8538 9.87608
1 1.61227 26.0652 9.85762
1 3.2123 26.8252 10.6414
1 4.006 26.0315 10.6414
1 4.01958 26.8154 9.86376
1 3.22769 26.0354 9.86141
1 4.7997 26.8252 10.6414
1 5.5934 26.0315 10.6414
1 5.62696 26.821 9.84912
1 4.80258 26.0054 9.8261
1 6.3871 26.8252 10.6414
1 7.1808 26.0315 10.6414
1 7.18981 26.8491 9.85016
1 6.37782 26.0366 9.84595
1 7.97451 26.8252 10.6414
1 8.76821 26.0315 10.6414
1 8.79517 26.8288 9.83921
1 7.97297 26.044 9.82903
1 9.56191 26.8252 10.6414
1 10.3556 26.0315 10.6414
1 10.3448 26.8193 9.8289
1 9.56642 26.0164 9.85705
1 11.1493 26.8252 10.6414
1 11.943 26.0315 10.6414
1 11.9442 26.8129 9.84505
1 11.151 26.0228 9.83106
1 12.7367 26.8252 10.6414
1 13.5304 26.0315 10.6414
1 13.515 26.825 9.85673
1 12.74 26.0074 9.85674
1 14.3241 26.8252 10.6414
1 15.1178 26.0315 10.6414
1 15.126 26.83 9.84205
1 14.324 26.0347 9.8377
1 15.9115 26.8252 10.6414
1 16.7052 26.0315 10.6414
1 16.7261 26.8279 9.84977
1 15.9233 26.03 9.83775
1 17.4989 26.8252 10.6414
1 18.2926 26.0315 10.6414
1 18.3083 26.7997 9.86604
1 17.5105 25.9958 9.86294
1 19.0863 26.8252 10.6414
1 19.88 26.0315 10.6414
1 19.8844 26.8147 9.86172
1 19.0713 26.0306 9.87317
1 20.6737 26.8252 10.6414
1 21.4674 26.0315 10.6414
1 21.4697 26.8128 9.84468
1 20.694 26.0264 9.85262
1 22.2611 26.8252 10.6414
1 23.0548 26.0315 10.6414
1 23.056 26.8027 9.87676
1 22.2699 26.0193 9.84272
1 23.8485 26.8252 10.6414
1 24.6422 26.0315 10.6414
1 24.6275 26.8138 9.85902
1 23.8626 26.0231 9.86646
1 25.4359 26.8252 10.6414
1 26.2296 26.0315 10.6414
1 26.2137 26.8123 9.84863
1 25.4453 26.0373 9.8823
1 27.0233 26.8252 10.6414
1 27.817 26.0315 10.6414
1 27.766 26.7998 9.85394
1 26.9977 26.0388 9.82727
1 28.6107 26.8252 10.6414
1 29.4044 26.0315 10.6414
1 29.3211 26.8028 9.80158
1 28.5441 26.0328 9.87032
1 0.0375 25.2378 10.6414
1 0.831201 24.4441 10.6414
1 0.835262 25.2416 9.84266
1 0.0829719 24.4224 9.82305
1 1.6249 25.2378 10.6414
1 2.4186 24.4441 10.6414
1 2.43765 25.2414 9.8527
1 1.65269 24.4365 9.84705
1 3.2123 25.2378 10.6414
1 4.006 24.4441 10.6414
1 4.02076 25.2586 9.85358
1 3.23859 24.443 9.86295
1 4.7997 25.2378 10.6414
1 5.5934 24.4441 10.6414
1 5.59782 25.2402 9.85768
1 4.80483 24.4569 9.86849
1 6.3871 25.2378 10.6414
1 7.1808 24.4441 10.6414
1 7.1822 25.248 9.85533
1 6.39876 24.4359 9.87784
1 7.97451 25.2378 10.6414
1 8.76821 24.4441 10.6414
1 8.78823 25.2409 9.83823
1 7.98883 24.4374 9.85221
1 9.56191 25.2378 10.6414
1 10.3556 24.4441 10.6414
1 10.3861 25.2287 9.84217
1 9.57548 24.4456 9.84952
1 11.1493 25.2378 10.6414
1 11.943 24.4441 10.6414
1 11.9488 25.2205 9.85048
1 11.1593 24.433 9.8474
1 12.7367 25.2378 10.6414
1 13.5304 24.4441 10.6414
1 13.5406 25.244 9.853
1 12.7676 24.4135 9.84123
1 14.3241 25.2378 10.6414
1 15.1178 24.4441 10.6414
1 15.1152 25.2484 9.84788
1 14.3072 24.4496 9.85394
1 15.9115 25.2378 10.6414
1 16.7052 24.4441 10.6414
1 16.6862 25.2448 9.85562
1 15.8948 24.4497 9.84771
1 17.4989 25.2378 10.6414
1 18.2926 24.4441 10.6414
1 18.3068 25.2438 9.84449
1 17.5139 24.452 9.84774
1 19.0863 25.2378 10.6414
1 19.88 24.4441 10.6414
1 19.8507 25.2283 9.82221
1 19.0648 24.4138 9.84042
1 20.6737 25.2378 10.6414
1 21.4674 24.4441 10.6414
1 21.448 25.2333 9.83637
1 20.6772 24.4446 9.83394
1 22.2611 25.2378 10.6414
1 23.0548 24.4441 10.6414
1 23.0626 25.2172 9.83245
1 22.2586 24.4278 9.84364
1 23.8485 25.2378 10.6414
1 24.6422 24.4441 10.6414
1 24.6596 25.2531 9.82523
1 23.8684 24.444 9.8503
1 25.4359 25.2378 10.6414
1 26.2296 24.4441 10.6414
1 26.2251 25.2576 9.84545
1 25.4503 24.4783 9.8263
1 27.0233 25.2378 10.6414
1 27.817 24.4441 10.6414
1 27.7705 25.2408 9.85015
1 27.0112 24.4352 9.85564
1 28.6107 25.2378 10.6414
1 29.4044 24.4441 10.6414
1 29.3169 25.2342 9.81609
1 28.5664 24.4319 9.83351
1 0.0375 23.6504 10.6414
1 0.831201 22.8567 10.6414
1 0.855098 23.6515 9.85512
1 0.102683 22.8656 9.82333
1 1.6249 23.6504 10.6414
1 2.4186 22.8567 10.6414
1 2.43101 23.6337 9.86997
1 1.62464 22.8564 9.86228
1 3.2123 23.6504 10.6414
1 4.006 22.8567 10.6414
1 4.00964 23.6633 9.85643
1 3.22649 22.8448 9.82976
1 4.7997 23.6504 10.6414
1 5.5934 22.8567 10.6414
1 5.58105 23.6652 9.8604
1 4.80378 22.8456 9.84823
1 6.3871 23.6504 10.6414
1 7.1808 22.8567 10.6414
1 7.16216 23.6453 9.84891
1 6.40305 22.8456 9.86125
1 7.97451 23.6504 10.6414
1 8.76821 22.8567 10.6414
1 8.79658 23.6413 9.84407
1 7.98407 22.8797 9.83557
1 9.56191 23.6504 10.6414
1 10.3556 22.8567 10.6414
1 10.3732 23.6378 9.8458
1 9.55162 22.8513 9.82822
1 11.1493 23.6504 10.6414
1 11.943 22.8567 10.6414
1 11.9491 23.6623 9.84877
1 11.1419 22.8469 9.85992
1 12.7367 23.6504 10.6414
1 13.5304 22.8567 10.6414
1 13.5621 23.6395 9.84877
1 12.7422 22.8564 9.83768
1 14.3241 23.6504 10.6414
1 15.1178 22.8567 10.6414
1 15.1149 23.6608 9.86731
1 14.3159 22.8483 9.846
1 15.9115 23.6504 10.6414
1 16.7052 22.8567 10.6414
1 16.7079 23.6553 9.8375
1 15.9029 22.8577 9.86101
1 17.4989 23.6504 10.6414
1 18.2926 22.8567 10.6414
1 18.2822 23.6378 9.85194
1 17.4565 22.8587 9.83988
1 19.0863 23.6504 10.6414
1 19.88 22.8567 10.6414
1 19.888 23.6372 9.829
1 19.076 22.8511 9.85149
1 20.6737 23.6504 10.6414
1 21.4674 22.8567 10.6414
1 21.472 23.6414 9.85458
1 20.6436 22.842 9.84607
1 22.2611 23.6504 10.6414
1 23.0548 22.8567 10.6414
1 23.0847 23.6652 9.84367
1 22.2455 22.8679 9.83865
1 23.8485 23.6504 10.6414
1 24.6422 22.8567 10.6414
1 24.6467 23.6531 9.84811
1 23.8687 22.8579 9.86071
1 25.4359 23.6504 10.6414
1 26.2296 22.8567 10.6414
1 26.2256 23.6501 9.82943
1 25.4169 22.8437 9.86306
1 27.0233 23.6504 10.6414
1 27.817 22.8567 10.6414
1 27.7775 23.6611 9.83807
1 27.0116 22.8504 9.87841
1 28.6107 23.6504 10.6414
1 29.4044 22.8567 10.6414
1 29.3284 23.6428 9.84103
1 28.568 22.8659 9.87682
1 0.0375 22.063 10.6414
1 0.831201 21.2693 10.6414
1 0.84192 22.0448 9.85368
1 0.100898 21.2741 9.79577
1 1.6249 22.063 10.6414
1 2.4186 21.2693 10.6414
1 2.4115 22.0786 9.85375
1 1.63639 21.2848 9.82697
1 3.2123 22.063 10.6414
1 4.006 21.2693 10.6414
1 4.02527 22.0711 9.86272
1 3.21012 21.2513 9.83085
1 4.7997 22.063 10.6414
1 5.5934 21.2693 10.6414
1 5.57574 22.0697 9.86708
1 4.7971 21.2719 9.88301
1 6.3871 22.063 10.6414
1 7.1808 21.2693 10.6414
1 7.20768 22.059 9.86161
1 6.36512 21.2602 9.85446
1 7.97451 22.063 10.6414
1 8.76821 21.2693 10.6414
1 8.79645 22.0618 9.85371
1 8.01524 21.2529 9.80384
1 9.56191 22.063 10.6414
1 10.3556 21.2693 10.6414
1 10.3406 22.0514 9.84852
1 9.56509 21.2624 9.8522
1 11.1493 22.063 10.6414
1 11.943 21.2693 10.6414
1 11.9372 22.0661 9.86837
1 11.1322 21.2361 9.84454
1 12.7367 22.063 10.6414
1 13.5304 21.2693 10.6414
1 13.5324 22.0725 9.82033
1 12.7419 21.2736 9.86952
1 14.3241 22.063 10.6414
1 15.1178 21.2693 10.6414
1 15.1342 22.0404 9.83582
1 14.3027 21.2787 9.84929
1 15.9115 22.063 10.6414
1 16.7052 21.2693 10.6414
1 16.6752 22.0629 9.84887
1 15.9294 21.2752 9.85227
1 17.4989 22.063 10.6414
1 18.2926 21.2693 10.6414
1 18.2761 22.0594 9.85775
1 17.4947 21.2512 9.85051
1 19.0863 22.063 10.6414
1 19.88 21.2693 10.6414
1 19.8834 22.0547 9.85381
1 19.061 21.2596 9.84933
1 20.6737 22.063 10.6414
1 21.4674 21.2693 10.6414
1 21.4647 22.068 9.83319
1 20.6754 21.2309 9.85697
1 22.2611 22.063 10.6414
1 23.0548 21.2693 10.6414
1 23.0651 22.0768 9.86041
1 22.2744 21.2919 9.85253
1 23.8485 22.063 10.6414
1 24.6422 21.2693 10.6414
1 24.6305 22.0514 9.85156
1 23.8609 21.2987 9.86093
1 25.4359 22.063 10.6414
1 26.2296 21.2693 10.6414
1 26.226 22.0472 9.85361
1 25.4195 21.2563 9.83567
1 27.0233 22.063 10.6414
1 27.817 21.2693 10.6414
1 27.7881 22.0532 9.84523
1 26.9999 21.2527 9.84863
1 28.6107 22.063 10.6414
1 29.4044 21.2693 10.6414
1 29.339 22.0504 9.81571
1 28.5851 21.2575 9.86921
1 0.0375 20.4756 10.6414
1 0.831201 19.6819 10.6414
1 0.846156 20.4815 9.84457
1 0.0910777 19.7072 9.82052
1 1.6249 20.4756 10.6414
1 2.4186 19.6819 10.6414
1 2.42247 20.4583 9.83922
1 1.6179 19.6689 9.84138
1 3.2123 20.4756 10.6414
1 4.006 19.6819 10.6414
1 4.01844 20.4558 9.85483
1 3.24539 19.6688 9.86096
1 4.7997 20.4756 10.6414
1 5.5934 19.6819 10.6414
1 5.58475 20.4621 9.85065
1 4.80432 19.6832 9.84323
1 6.3871 20.4756 10.6414
1 7.1808 19.6819 10.6414
1 7.18362 20.4602 9.85675
1 6.39431 19.6863 9.85135
1 7.97451 20.4756 10.6414
1 8.76821 19.6819 10.6414
1 8.78979 20.4722 9.84713
1 7.97208 19.6891 9.85903
1 9.56191 20.4756 10.6414
1 10.3556 19.6819 10.6414
1 10.3559 20.4687 9.83959
1 9.56142 19.6735 9.83498
1 11.1493 20.4756 10.6414
1 11.943 19.6819 10.6414
1 11.9226 20.4821 9.85541
1 11.1585 19.6882 9.85845
1 12.7367 20.4756 10.6414
1 13.5304 19.6819 10.6414
1 13.5286 20.4719 9.84002
1 12.711 19.6911 9.84341
1 14.3241 20.4756 10.6414
1 15.1178 19.6819 10.6414
1 15.1115 20.4959 9.85087
1 14.3012 19.6979 9.84601
1 15.9115 20.4756 10.6414
1 16.7052 19.6819 10.6414
1 16.7056 20.4692 9.82424
1 15.8958 19.6643 9.85828
1 17.4989 20.4756 10.6414
1 18.2926 19.6819 10.6414
1 18.2856 20.4602 9.85124
1 17.4992 19.6808 9.83611
1 19.0863 20.4756 10.6414
1 19.88 19.6819 10.6414
1 19.8723 20.4837 9.8694
1 19.088 19.6807 9.84999
1 20.6737 20.4756 10.6414
1 21.4674 19.6819 10.6414
1 21.4863 20.4639 9.86752
1 20.6501 19.6948 9.85051
1 22.2611 20.4756 10.6414
1 23.0548 19.6819 10.6414
1 23.0361 20.4702 9.83789
1 22.2521 19.6976 9.83986
1 23.8485 20.4756 10.6414
1 24.6422 19.6819 10.6414
1 24.6433 20.5007 9.84819
1 23.8426 19.704 9.84842
1 25.4359 20.4756 10.6414
1 26.2296 19.6819 10.6414
1 26.1903 20.4596 9.85655
1 25.4191 19.6627 9.86053
1 27.0233 20.4756 10.6414
1 27.817 19.6819 10.6414
1 27.7837 20.4792 9.84268
1 26.9909 19.6951 9.85156
1 28.6107 20.4756 10.6414
1 29.4044 19.6819 10.6414
1 29.3112 20.4776 9.82597
1 28.5759 19.6729 9.8394
1 0.0375 18.8882 10.6414
1 0.831201 18.0945 10.6414
1 0.851377 18.8958 9.81413
1 0.0992006 18.0994 9.81278
1 1.6249 18.8882 10.6414
1 2.4186 18.0945 10.6414
1 2.42697 18.8839 9.84805
1 1.64428 18.1132 9.84436
1 3.2123 18.8882 10.6414
1 4.006 18.0945 10.6414
1 4.02908 18.8847 9.86055
1 3.22485 18.1127 9.86074
1 4.7997 18.8882 10.6414
1 5.5934 18.0945 10.6414
1 5.59188 18.8907 9.84931
1 4.80744 18.0927 9.83585
1 6.3871 18.8882 10.6414
1 7.1808 18.0945 10.6414
1 7.1851 18.9075 9.85603
1 6.38356 18.1145 9.8498
1 7.97451 18.8882 10.6414
1 8.76821 18.0945 10.6414
1 8.76233 18.8868 9.85962
1 7.99041 18.0863 9.84015
1 9.56191 18.8882 10.6414
1 10.3556 18.0945 10.6414
1 10.3556 18.8967 9.85633
1 9.57946 18.113 9.84545
1 11.1493 18.8882 10.6414
1 11.943 18.0945 10.6414
1 11.9499 18.8709 9.84906
1 11.1552 18.1025 9.84719
1 12.7367 18.8882 10.6414
1 13.5304 18.0945 10.6414
1 13.5391 18.9005 9.83107
1 12.727 18.0964 9.84605
1 14.3241 18.8882 10.6414
1 15.1178 18.0945 10.6414
1 15.1236 18.8863 9.82911
1 14.3089 18.0798 9.83666
1 15.9115 18.8882 10.6414
1 16.7052 18.0945 10.6414
1 16.7233 18.8756 9.8451
1 15.9133 18.1038 9.82797
1 17.4989 18.8882 10.6414
1 18.2926 18.0945 10.6414
1 18.2985 18.8878 9.82759
1 17.4996 18.1197 9.83217
1 19.0863 18.8882 10.6414
1 19.88 18.0945 10.6414
1 19.871 18.8861 9.86994
1 19.0709 18.0832 9.85943
1 20.6737 18.8882 10.6414
1 21.4674 18.0945 10.6414
1 21.4547 18.8855 9.84336
1 20.6659 18.0829 9.84939
1 22.2611 18.8882 10.6414
1 23.0548 18.0945 10.6414
1 23.0553 18.8733 9.85366
1 22.2233 18.08 9.83881
1 23.8485 18.8882 10.6414
1 24.6422 18.0945 10.6414
1 24.6525 18.894 9.82449
1 23.8504 18.094 9.85403
1 25.4359 18.8882 10.6414
1 26.2296 18.0945 10.6414
1 26.2338 18.9042 9.86014
1 25.432 18.0864 9.83707
1 27.0233 18.8882 10.6414
1 27.817 18.0945 10.6414
1 27.7945 18.8835 9.85802
1 27.0157 18.1012 9.84807
1 28.6107 18.8882 10.6414
1 29.4044 18.0945 10.6414
1 29.3628 18.8811 9.80902
1 28.5838 18.0945 9.87294
1 0.0375 17.3008 10.6414
1 0.831201 16.5071 10.6414
1 0.901327 17.3367 9.84646
1 0.126296 16.5351 9.83275
1 1.6249 17.3008 10.6414
1 2.4186 16.5071 10.6414
1 2.40792 17.3083 9.85903
1 1.63551 16.4846 9.84709
1 3.2123 17.3008 10.6414
1 4.006 16.5071 10.6414
1 4.00888 17.3056 9.85467
1 3.22113 16.5185 9.84596
1 4.7997 17.3008 10.6414
1 5.5934 16.5071 10.6414
1 5.61313 17.3254 9.84745
1 4.79718 16.5177 9.85014
1 6.3871 17.3008 10.6414
1 7.1808 16.5071 10.6414
1 7.16955 17.3195 9.83651
1 6.3949 16.5157 9.87024
1 7.97451 17.3008 10.6414
1 8.76821 16.5071 10.6414
1 8.77588 17.3122 9.86211
1 7.98622 16.5194 9.84698
1 9.56191 17.3008 10.6414
1 10.3556 16.5071 10.6414
1 10.3531 17.3205 9.84978
1 9.56716 16.5437 9.84556
1 11.1493 17.3008 10.6414
1 11.943 16.5071 10.6414
1 11.9461 17.295 9.81342
1 11.1341 16.5163 9.83395
1 12.7367 17.3008 10.6414
1 13.5304 16.5071 10.6414
1 13.5227 17.312 9.86877
1 12.7454 16.5021 9.85635
1 14.3241 17.3008 10.6414
1 15.1178 16.5071 10.6414
1 15.1248 17.335 9.8576
1 14.3368 16.5063 9.84503
1 15.9115 17.3008 10.6414
1 16.7052 16.5071 10.6414
1 16.709 17.2921 9.85842
1 15.9078 16.505 9.84499
1 17.4989 17.3008 10.6414
1 18.2926 16.5071 10.6414
1 18.2918 17.2741 9.85554
1 17.4866 16.4806 9.84572
1 19.0863 17.3008 10.6414
1 19.88 16.5071 10.6414
1 19.8532 17.3058 9.8292
1 19.1058 16.5005 9.83357
1 20.6737 17.3008 10.6414
1 21.4674 16.5071 10.6414
1 21.4758 17.2963 9.84468
1 20.6681 16.5298 9.85208
1 22.2611 17.3008 10.6414
1 23.0548 16.5071 10.6414
1 23.042 17.2819 9.84121
1 22.2621 16.5065 9.84506
1 23.8485 17.3008 10.6414
1 24.6422 16.5071 10.6414
1 24.6571 17.3044 9.86472
1 23.8726 16.5222 9.83305
1 25.4359 17.3008 10.6414
1 26.2296 16.5071 10.6414
1 26.2333 17.2746 9.85184
1 25.4325 16.4848 9.85584
1 27.0233 17.3008 10.6414
1 27.817 16.5071 10.6414
1 27.7983 17.304 9.85863
1 27.0435 16.5055 9.8453
1 28.6107 17.3008 10.6414
1 29.4044 16.5071 10.6414
1 29.3415 17.2852 9.81222
1 28.5519 16.5001 9.84694
1 0.0375 15.7134 10.6414
1 0.831201 14.9197 10.6414
1 0.845058 15.7517 9.83944
1 0.0927246 14.9465 9.81266
1 1.6249 15.7134 10.6414
1 2.4186 14.9197 10.6414
1 2.4419 15.7058 9.86846
1 1.64078 14.9267 9.84246
1 3.2123 15.7134 10.6414
1 4.006 14.9197 10.6414
1 4.01675 15.7122 9.83048
1 3.22548 14.9145 9.85803
1 4.7997 15.7134 10.6414
1 5.5934 14.9197 10.6414
1 5.59051 15.7116 9.83628
1 4.78922 14.9039 9.83655
1 6.3871 15.7134 10.6414
1 7.1808 14.9197 10.6414
1 7.16561 15.7145 9.84389
1 6.37661 14.9041 9.8351
1 7.97451 15.7134 10.6414
1 8.76821 14.9197 10.6414
1 8.75398 15.722 9.81601
1 7.97018 14.9048 9.83944
1 9.56191 15.7134 10.6414
1 10.3556 14.9197 10.6414
1 10.3277 15.7286 9.84706
1 9.58402 14.9115 9.84475
1 11.1493 15.7134 10.6414
1 11.943 14.9197 10.6414
1 11.9231 15.7105 9.85684
1 11.1245 14.9214 9.86123
1 12.7367 15.7134 10.6414
1 13.5304 14.9197 10.6414
1 13.5196 15.6931 9.848
1 12.7446 14.8818 9.8634
1 14.3241 15.7134 10.6414
1 15.1178 14.9197 10.6414
1 15.1053 15.7022 9.84958
1 14.2978 14.9135 9.85305
1 15.9115 15.7134 10.6414
1 16.7052 14.9197 10.6414
1 16.7144 15.7221 9.85767
1 15.9024 14.9491 9.87596
1 17.4989 15.7134 10.6414
1 18.2926 14.9197 10.6414
1 18.3241 15.7229 9.83732
1 17.5096 14.9199 9.85397
1 19.0863 15.7134 10.6414
1 19.88 14.9197 10.6414
1 19.8784 15.7182 9.85388
1 19.079 14.9144 9.87589
1 20.6737 15.7134 10.6414
1 21.4674 14.9197 10.6414
1 21.4668 15.7216 9.83706
1 20.6662 14.9173 9.84377
1 22.2611 15.7134 10.6414
1 23.0548 14.9197 10.6414
1 23.0516 15.7079 9.85099
1 22.2412 14.9105 9.8458
1 23.8485 15.7134 10.6414
1 24.6422 14.9197 10.6414
1 24.627 15.7002 9.87328
1 23.817 14.9085 9.859
1 25.4359 15.7134 10.6414
1 26.2296 14.9197 10.6414
1 26.213 15.7044 9.84156
1 25.4573 14.9053 9.84282
1 27.0233 15.7134 10.6414
1 27.817 14.9197 10.6414
1 27.8087 15.6705 9.82799
1 27.0155 14.9175 9.84061
1 28.6107 15.7134 10.6414
1 29.4044 14.9197 10.6414
1 29.3336 15.7264 9.80728
1 28.591 14.9245 9.8224
1 0.0375 14.126 10.6414
1 0.831201 13.3323 10.6414
1 0.872108 14.1266 9.82057
1 0.103665 13.344 9.83089
1 1.6249 14.126 10.6414
1 2.4186 13.3323 10.6414
1 2.43507 14.1301 9.84264
1 1.64616 13.3547 9.8491
1 3.2123 14.126 10.6414
1 4.006 13.3323 10.6414
1 3.99617 14.1198 9.84293
1 3.22642 13.369 9.83532
1 4.7997 14.126 10.6414
1 5.5934 13.3323 10.6414
1 5.60905 14.1167 9.8521
1 4.8093 13.3381 9.84808
1 6.3871 14.126 10.6414
1 7.1808 13.3323 10.6414
1 7.17027 14.0986 9.82332
1 6.37599 13.3424 9.84358
1 7.97451 14.126 10.6414
1 8.76821 13.3323 10.6414
1 8.76541 14.1229 9.85187
1 7.96754 13.3306 9.85019
1 9.56191 14.126 10.6414
1 10.3556 13.3323 10.6414
1 10.3755 14.1211 9.81862
1 9.59794 13.3356 9.84802
1 11.1493 14.126 10.6414
1 11.943 13.3323 10.6414
1 11.9217 14.1289 9.8347
1 11.142 13.3212 9.86864
1 12.7367 14.126 10.6414
1 13.5304 13.3323 10.6414
1 13.5335 14.1319 9.84683
1 12.7351 13.3504 9.84745
1 14.3241 14.126 10.6414
1 15.1178 13.3323 10.6414
1 15.1313 14.1221 9.83002
1 14.3561 13.3438 9.84318
1 15.9115 14.126 10.6414
1 16.7052 13.3323 10.6414
1 16.6876 14.1347 9.84947
1 15.9062 13.3279 9.87057
1 17.4989 14.126 10.6414
1 18.2926 13.3323 10.6414
1 18.2873 14.13 9.84506
1 17.4748 13.3481 9.8598
1 19.0863 14.126 10.6414
1 19.88 13.3323 10.6414
1 19.8675 14.112 9.86668
1 19.0957 13.3193 9.83646
1 20.6737 14.126 10.6414
1 21.4674 13.3323 10.6414
1 21.4631 14.1547 9.85071
1 20.6811 13.3343 9.84437
1 22.2611 14.126 10.6414
1 23.0548 13.3323 10.6414
1 23.0567 14.1387 9.87532
1 22.2655 13.351 9.84685
1 23.8485 14.126 10.6414
1 24.6422 13.3323 10.6414
1 24.6588 14.1264 9.85296
1 23.8461 13.3605 9.83555
1 25.4359 14.126 10.6414
1 26.2296 13.3323 10.6414
1 26.2369 14.1214 9.82534
1 25.4149 13.3175 9.84593
1 27.0233 14.126 10.6414
1 27.817 13.3323 10.6414
1 27.8057 14.1174 9.84415
1 27.021 13.3099 9.83571
1 28.6107 14.126 10.6414
1 29.4044 13.3323 10.6414
1 29.336 14.1386 9.82983
1 28.5767 13.3327 9.84117
1 0.0375 12.5386 10.6414
1 0.831201 11.7449 10.6414
1 0.86817 12.5247 9.8386
1 0.103804 11.75 9.81457
1 1.6249 12.5386 10.6414
1 2.4186 11.7449 10.6414
1 2.45383 12.5321 9.83819
1 1.62141 11.7454 9.85197
1 3.2123 12.5386 10.6414
1 4.006 11.7449 10.6414
1 4.00696 12.5442 9.83542
1 3.24316 11.7277 9.8581
1 4.7997 12.5386 10.6414
1 5.5934 11.7449 10.6414
1 5.5833 12.5272 9.86542
1 4.79574 11.7395 9.85822
1 6.3871 12.5386 10.6414
1 7.1808 11.7449 10.6414
1 7.21526 12.5357 9.842
1 6.38041 11.75 9.83873
1 7.97451 12.5386 10.6414
1 8.76821 11.7449 10.6414
1 8.78908 12.5394 9.85053
1 7.99538 11.7297 9.84516
1 9.56191 12.5386 10.6414
1 10.3556 11.7449 10.6414
1 10.3378 12.5318 9.85089
1 9.58017 11.7391 9.86033
1 11.1493 12.5386 10.6414
1 11.943 11.7449 10.6414
1 11.9583 12.532 9.86021
1 11.1435 11.7501 9.87222
1 12.7367 12.5386 10.6414
1 13.5304 11.7449 10.6414
1 13.523 12.5447 9.85359
1 12.7546 11.7327 9.85579
1 14.3241 12.5386 10.6414
1 15.1178 11.7449 10.6414
1 15.1149 12.5374 9.85708
1 14.3396 11.7327 9.85826
1 15.9115 12.5386 10.6414
1 16.7052 11.7449 10.6414
1 16.7226 12.5354 9.84199
1 15.9013 11.7242 9.86961
1 17.4989 12.5386 10.6414
1 18.2926 11.7449 10.6414
1 18.2976 12.5266 9.83847
1 17.5059 11.7462 9.84874
1 19.0863 12.5386 10.6414
1 19.88 11.7449 10.6414
1 19.8761 12.5309 9.83679
1 19.0844 11.7377 9.84324
1 20.6737 12.5386 10.6414
1 21.4674 11.7449 10.6414
1 21.4772 12.5121 9.85972
1 20.6838 11.7234 9.84914
1 22.2611 12.5386 10.6414
1 23.0548 11.7449 10.6414
1 23.0351 12.557 9.85761
1 22.2681 11.753 9.84663
1 23.8485 12.5386 10.6414
1 24.6422 11.7449 10.6414
1 24.6098 12.5548 9.86611
1 23.8497 11.7727 9.85157
1 25.4359 12.5386 10.6414
1 26.2296 11.7449 10.6414
1 26.206 12.5448 9.8351
1 25.4295 11.7471 9.83435
1 27.0233 12.5386 10.6414
1 27.817 11.7449 10.6414
1 27.7855 12.5293 9.83062
1 27.0214 11.7716 9.85686
1 28.6107 12.5386 10.6414
1 29.4044 11.7449 10.6414
1 29.3512 12.5402 9.83282
1 28.5769 11.7798 9.85258
1 0.0375 10.9512 10.6414
1 0.831201 10.1575 10.6414
1 0.851561 10.924 9.83837
1 0.0888165 10.1601 9.82361
1 1.6249 10.9512 10.6414
1 2.4186 10.1575 10.6414
1 2.40608 10.9379 9.87016
1 1.64394 10.1366 9.83496
1 3.2123 10.9512 10.6414
1 4.006 10.1575 10.6414
1 4.02313 10.9227 9.84324
1 3.20392 10.1452 9.84689
1 4.7997 10.9512 10.6414
1 5.5934 10.1575 10.6414
1 5.60369 10.9382 9.86351
1 4.826 10.1609 9.86448
1 6.3871 10.9512 10.6414
1 7.1808 10.1575 10.6414
1 7.19023 10.9192 9.86239
1 6.36855 10.144 9.85827
1 7.97451 10.9512 10.6414
1 8.76821 10.1575 10.6414
1 8.77299 10.9454 9.85202
1 7.98118 10.1454 9.84662
1 9.56191 10.9512 10.6414
1 10.3556 10.1575 10.6414
1 10.3528 10.9559 9.85326
1 9.57687 10.1718 9.8403
1 11.1493 10.9512 10.6414
1 11.943 10.1575 10.6414
1 11.932 10.9342 9.83311
1 11.1347 10.1242 9.8378
1 12.7367 10.9512 10.6414
1 13.5304 10.1575 10.6414
1 13.5446 10.9446 9.86716
1 12.7243 10.1693 9.85597
1 14.3241 10.9512 10.6414
1 15.1178 10.1575 10.6414
1 15.0996 10.9411 9.8353
1 14.3144 10.1443 9.85507
1 15.9115 10.9512 10.6414
1 16.7052 10.1575 10.6414
1 16.7293 10.9601 9.85016
1 15.9175 10.1487 9.82822
1 17.4989 10.9512 10.6414
1 18.2926 10.1575 10.6414
1 18.2737 10.9444 9.85997
1 17.507 10.1616 9.83318
1 19.0863 10.9512 10.6414
1 19.88 10.1575 10.6414
1 19.8726 10.9504 9.8572
1 19.0839 10.1643 9.85782
1 20.6737 10.9512 10.6414
1 21.4674 10.1575 10.6414
1 21.5013 10.9531 9.86508
1 20.6825 10.1602 9.84329
1 22.2611 10.9512 10.6414
1 23.0548 10.1575 10.6414
1 23.0713 10.9556 9.84509
1 22.2665 10.1726 9.84297
1 23.8485 10.9512 10.6414
1 24.6422 10.1575 10.6414
1 24.6489 10.9579 9.88459
1 23.8667 10.1683 9.86038
1 25.4359 10.9512 10.6414
1 26.2296 10.1575 10.6414
1 26.2377 10.9767 9.89478
1 25.4248 10.173 9.84404
1 27.0233 10.9512 10.6414
1 27.817 10.1575 10.6414
1 27.797 10.9577 9.85135
1 27.02 10.1694 9.83258
1 28.6107 10.9512 10.6414
1 29.4044 10.1575 10.6414
1 29.3577 10.9473 9.83156
1 28.5888 10.1496 9.84926
1 0.0375 9.36379 10.6414
1 0.831201 8.57009 10.6414
1 0.85216 9.37083 9.81207
1 0.115319 8.56382 9.81248
1 1.6249 9.36379 10.6414
1 2.4186 8.57009 10.6414
1 2.41719 9.36063 9.82036
1 1.61115 8.5986 9.84737
1 3.2123 9.36379 10.6414
1 4.006 8.57009 10.6414
1 3.99727 9.37355 9.84405
1 3.22495 8.57609 9.83766
1 4.7997 9.36379 10.6414
1 5.5934 8.57009 10.6414
1 5.58201 9.37779 9.8597
1 4.81266 8.56057 9.85998
1 6.3871 9.36379 10.6414
1 7.1808 8.57009 10.6414
1 7.16944 9.34748 9.85395
1 6.38758 8.55902 9.84554
1 7.97451 9.36379 10.6414
1 8.76821 8.57009 10.6414
1 8.77801 9.35232 9.85725
1 7.95881 8.55306 9.84122
1 9.56191 9.36379 10.6414
1 10.3556 8.57009 10.6414
1 10.3519 9.34886 9.84405
1 9.55718 8.58135 9.83731
1 11.1493 9.36379 10.6414
1 11.943 8.57009 10.6414
1 11.9243 9.35283 9.85326
1 11.1267 8.58319 9.85951
1 12.7367 9.36379 10.6414
1 13.5304 8.57009 10.6414
1 13.5294 9.36757 9.88645
1 12.7326 8.57323 9.87549
1 14.3241 9.36379 10.6414
1 15.1178 8.57009 10.6414
1 15.1389 9.32265 9.82247
1 14.3245 8.58307 9.84972
1 15.9115 9.36379 10.6414
1 16.7052 8.57009 10.6414
1 16.7009 9.35292 9.84818
1 15.9172 8.55791 9.86697
1 17.4989 9.36379 10.6414
1 18.2926 8.57009 10.6414
1 18.3263 9.37104 9.85329
1 17.5094 8.56125 9.82549
1 19.0863 9.36379 10.6414
1 19.88 8.57009 10.6414
1 19.8971 9.36204 9.84661
1 19.0956 8.5608 9.86117
1 20.6737 9.36379 10.6414
1 21.4674 8.57009 10.6414
1 21.4763 9.37002 9.86194
1 20.6815 8.57697 9.85092
1 22.2611 9.36379 10.6414
1 23.0548 8.57009 10.6414
1 23.0737 9.36911 9.84977
1 22.2614 8.55756 9.87043
1 23.8485 9.36379 10.6414
1 24.6422 8.57009 10.6414
1 24.6345 9.3757 9.85924
1 23.847 8.58391 9.85499
1 25.4359 9.36379 10.6414
1 26.2296 8.57009 10.6414
1 26.2143 9.36842 9.85465
1 25.4345 8.57562 9.8513
1 27.0233 9.36379 10.6414
1 27.817 8.57009 10.6414
1 27.7875 9.37841 9.85729
1 27.0128 8.57948 9.86274
1 28.6107 9.36379 10.6414
1 29.4044 8.57009 10.6414
1 29.3494 9.33413 9.84267
1 28.5838 8.56878 9.87548
1 0.0375 7.77639 10.6414
1 0.831201 6.98268 10.6414
1 0.865864 7.76269 9.81781
1 0.110205 6.99569 9.82242
1 1.6249 7.77639 10.6414
1 2.4186 6.98268 10.6414
1 2.43365 7.77355 9.85633
1 1.6401 7.01286 9.84779
1 3.2123 7.77639 10.6414
1 4.006 6.98268 10.6414
1 4.03678 7.77226 9.83137
1 3.22913 6.98937 9.83796
1 4.7997 7.77639 10.6414
1 5.5934 6.98268 10.6414
1 5.60645 7.75992 9.8707
1 4.82262 6.98159 9.82458
1 6.3871 7.77639 10.6414
1 7.1808 6.98268 10.6414
1 7.20548 7.76722 9.837
1 6.3794 6.98023 9.84337
1 7.97451 7.77639 10.6414
1 8.76821 6.98268 10.6414
1 8.78763 7.78025 9.85426
1 7.98119 6.99509 9.85324
1 9.56191 7.77639 10.6414
1 10.3556 6.98268 10.6414
1 10.3469 7.7978 9.8492
1 9.58248 6.98784 9.84301
1 11.1493 7.77639 10.6414
1 11.943 6.98268 10.6414
1 11.9247 7.78353 9.86179
1 11.147 6.98617 9.83131
1 12.7367 7.77639 10.6414
1 13.5304 6.98268 10.6414
1 13.5341 7.7869 9.86324
1 12.6976 6.95401 9.83934
1 14.3241 7.77639 10.6414
1 15.1178 6.98268 10.6414
1 15.114 7.76123 9.83435
1 14.3291 6.97241 9.86182
1 15.9115 7.77639 10.6414
1 16.7052 6.98268 10.6414
1 16.7155 7.77145 9.82642
1 15.9174 7.00332 9.85231
1 17.4989 7.77639 10.6414
1 18.2926 6.98268 10.6414
1 18.3287 7.78999 9.82973
1 17.5107 6.99531 9.86161
1 19.0863 7.77639 10.6414
1 19.88 6.98268 10.6414
1 19.884 7.78696 9.86145
1 19.1064 6.99605 9.85614
1 20.6737 7.77639 10.6414
1 21.4674 6.98268 10.6414
1 21.4774 7.76512 9.86992
1 20.6708 7.01112 9.84911
1 22.2611 7.77639 10.6414
1 23.0548 6.98268 10.6414
1 23.0646 7.79272 9.84632
1 22.2796 6.97005 9.85538
1 23.8485 7.77639 10.6414
1 24.6422 6.98268 10.6414
1 24.6545 7.7764 9.85229
1 23.8791 6.98265 9.85221
1 25.4359 7.77639 10.6414
1 26.2296 6.98268 10.6414
1 26.2263 7.78425 9.86147
1 25.4572 6.96281 9.84748
1 27.0233 7.77639 10.6414
1 27.817 6.98268 10.6414
1 27.7889 7.77396 9.84873
1 27.0006 6.98449 9.84177
1 28.6107 7.77639 10.6414
1 29.4044 6.98268 10.6414
1 29.35 7.77661 9.81286
1 28.5858 6.98829 9.83908
1 0.0375 6.18898 10.6414
1 0.831201 5.39528 10.6414
1 0.865553 6.19581 9.8433
1 0.0899171 5.39259 9.8243
1 1.6249 6.18898 10.6414
1 2.4186 5.39528 10.6414
1 2.44152 6.16444 9.85738
1 1.61117 5.40723 9.85933
1 3.2123 6.18898 10.6414
1 4.006 5.39528 10.6414
1 4.03439 6.21009 9.8568
1 3.22375 5.3945 9.86539
1 4.7997 6.18898 10.6414
1 5.5934 5.39528 10.6414
1 5.60194 6.18907 9.82523
1 4.79353 5.40201 9.86962
1 6.3871 6.18898 10.6414
1 7.1808 5.39528 10.6414
1 7.15547 6.18027 9.85018
1 6.38664 5.41689 9.85106
1 7.97451 6.18898 10.6414
1 8.76821 5.39528 10.6414
1 8.7801 6.18525 9.87262
1 7.97852 5.40515 9.88469