9376
Atoms. Timestep: 4000000
1 30 3.55271e-15 10.6911
1 0.793701 29.2063 10.6911
1 0.832887 29.9396 9.85291
1 0.0662892 29.1978 9.84024
1 1.5874 3.55271e-15 10.6911
1 2.3811 29.2063 10.6911
1 2.40541 29.927 9.86314
1 1.62787 29.1783 9.89754
1 3.1748 3.55271e-15 10.6911
1 3.9685 29.2063 10.6911
1 3.97877 29.8999 9.84901
1 3.15016 29.1722 9.92757
1 4.7622 3.55271e-15 10.6911
1 5.5559 29.2063 10.6911
1 5.54728 29.9377 9.87216
1 4.77264 29.1994 9.86721
1 6.3496 3.55271e-15 10.6911
1 7.1433 29.2063 10.6911
1 7.15563 29.9201 9.85337
1 6.34661 29.1861 9.8786
1 7.93701 3.55271e-15 10.6911
1 8.73071 29.2063 10.6911
1 8.72751 29.9267 9.85453
1 7.93712 29.1704 9.89257
1 9.52441 3.55271e-15 10.6911
1 10.3181 29.2063 10.6911
1 10.3088 29.9535 9.84693
1 9.51962 29.1647 9.8956
1 11.1118 3.55271e-15 10.6911
1 11.9055 29.2063 10.6911
1 11.9013 29.9407 9.85265
1 11.0762 29.1883 9.90726
1 12.6992 3.55271e-15 10.6911
1 13.4929 29.2063 10.6911
1 13.4707 29.9315 9.86792
1 12.7009 29.1861 9.88918
1 14.2866 3.55271e-15 10.6911
1 15.0803 29.2063 10.6911
1 15.0997 29.9416 9.87765
1 14.2784 29.1765 9.89142
1 15.874 3.55271e-15 10.6911
1 16.6677 29.2063 10.6911
1 16.6919 29.9187 9.85751
1 15.8806 29.173 9.90147
1 17.4614 3.55271e-15 10.6911
1 18.2551 29.2063 10.6911
1 18.2611 29.9349 9.84984
1 17.4664 29.1608 9.86918
1 19.0488 3.55271e-15 10.6911
1 19.8425 29.2063 10.6911
1 19.8384 29.9352 9.87573
1 19.0536 29.19 9.87782
1 20.6362 3.55271e-15 10.6911
1 21.4299 29.2063 10.6911
1 21.4335 29.9406 9.84825
1 20.6446 29.1785 9.8781
1 22.2236 3.55271e-15 10.6911
1 23.0173 29.2063 10.6911
1 23.0312 29.9244 9.87853
1 22.2194 29.1854 9.88385
1 23.811 3.55271e-15 10.6911
1 24.6047 29.2063 10.6911
1 24.5909 29.9061 9.87627
1 23.8066 29.1793 9.86851
1 25.3984 3.55271e-15 10.6911
1 26.1921 29.2063 10.6911
1 26.2062 29.9435 9.84963
1 25.3954 29.1616 9.89513
1 26.9858 3.55271e-15 10.6911
1 27.7795 29.2063 10.6911
1 27.7637 29.9021 9.84843
1 26.9777 29.1651 9.88398
1 28.5732 3.55271e-15 10.6911
1 29.3669 29.2063 10.6911
1 29.2902 29.9406 9.84204
1 28.5381 29.1814 9.88267
1 30 28.4126 10.6911
1 0.793701 27.6189 10.6911
1 0.826972 28.3984 9.89328
1 0.081884 27.5963 9.86305
1 1.5874 28.4126 10.6911
1 2.3811 27.6189 10.6911
1 2.40655 28.3723 9.92215
1 1.60472 27.6184 9.8971
1 3.1748 28.4126 10.6911
1 3.9685 27.6189 10.6911
1 3.96973 28.3889 9.90792
1 3.19654 27.6203 9.89822
1 4.7622 28.4126 10.6911
1 5.5559 27.6189 10.6911
1 5.56568 28.3894 9.89033
1 4.77998 27.5988 9.8899
1 6.3496 28.4126 10.6911
1 7.1433 27.6189 10.6911
1 7.13 28.3817 9.8984
1 6.3533 27.6066 9.91385
1 7.93701 28.4126 10.6911
1 8.73071 27.6189 10.6911
1 8.73316 28.4155 9.89847
1 7.93017 27.6291 9.91127
1 9.52441 28.4126 10.6911
1 10.3181 27.6189 10.6911
1 10.3275 28.3865 9.89196
1 9.54262 27.6068 9.88748
1 11.1118 28.4126 10.6911
1 11.9055 27.6189 10.6911
1 11.8957 28.4026 9.89797
1 11.1462 27.6232 9.91105
1 12.6992 28.4126 10.6911
1 13.4929 27.6189 10.6911
1 13.4813 28.4016 9.90754
1 12.6927 27.5734 9.90714
1 14.2866 28.4126 10.6911
1 15.0803 27.6189 10.6911
1 15.0651 28.3932 9.88092
1 14.293 27.6067 9.88706
1 15.874 28.4126 10.6911
1 16.6677 27.6189 10.6911
1 16.6571 28.4053 9.89106
1 15.887 27.6202 9.92344
1 17.4614 28.4126 10.6911
1 18.2551 27.6189 10.6911
1 18.2545 28.3905 9.8887
1 17.4748 27.5987 9.89736
1 19.0488 28.4126 10.6911
1 19.8425 27.6189 10.6911
1 19.8353 28.4162 9.89005
1 19.0699 27.6074 9.88845
1 20.6362 28.4126 10.6911
1 21.4299 27.6189 10.6911
1 21.4167 28.393 9.88347
1 20.6194 27.5773 9.92922
1 22.2236 28.4126 10.6911
1 23.0173 27.6189 10.6911
1 23.004 28.3561 9.89237
1 22.2172 27.5983 9.90533
1 23.811 28.4126 10.6911
1 24.6047 27.6189 10.6911
1 24.616 28.4058 9.87997
1 23.8127 27.6144 9.8908
1 25.3984 28.4126 10.6911
1 26.1921 27.6189 10.6911
1 26.1805 28.4054 9.91923
1 25.4227 27.6102 9.90127
1 26.9858 28.4126 10.6911
1 27.7795 27.6189 10.6911
1 27.7647 28.4086 9.90895
1 26.9641 27.6449 9.89476
1 28.5732 28.4126 10.6911
1 29.3669 27.6189 10.6911
1 29.3009 28.4049 9.84245
1 28.5349 27.6185 9.86185
1 30 26.8252 10.6911
1 0.793701 26.0315 10.6911
1 0.8113 26.8419 9.88533
1 0.0499038 26.0286 9.88121
1 1.5874 26.8252 10.6911
1 2.3811 26.0315 10.6911
1 2.35736 26.8514 9.89361
1 1.59503 26.0356 9.90311
1 3.1748 26.8252 10.6911
1 3.9685 26.0315 10.6911
1 3.98027 26.8263 9.92428
1 3.17684 26.0632 9.91277
1 4.7622 26.8252 10.6911
1 5.5559 26.0315 10.6911
1 5.58811 26.8229 9.89913
1 4.76626 26.0143 9.89275
1 6.3496 26.8252 10.6911
1 7.1433 26.0315 10.6911
1 7.15339 26.852 9.8761
1 6.35928 26.0276 9.85512
1 7.93701 26.8252 10.6911
1 8.73071 26.0315 10.6911
1 8.71387 26.833 9.90064
1 7.91102 26.0469 9.88693
1 9.52441 26.8252 10.6911
1 10.3181 26.0315 10.6911
1 10.3559 26.8299 9.88667
1 9.53064 26.0507 9.91044
1 11.1118 26.8252 10.6911
1 11.9055 26.0315 10.6911
1 11.8933 26.8024 9.87735
1 11.1198 26.0026 9.90538
1 12.6992 26.8252 10.6911
1 13.4929 26.0315 10.6911
1 13.4752 26.8298 9.90907
1 12.6996 26.0091 9.8913
1 14.2866 26.8252 10.6911
1 15.0803 26.0315 10.6911
1 15.075 26.8271 9.9136
1 14.2908 26.039 9.92007
1 15.874 26.8252 10.6911
1 16.6677 26.0315 10.6911
1 16.6798 26.8152 9.89558
1 15.8896 26.0208 9.87767
1 17.4614 26.8252 10.6911
1 18.2551 26.0315 10.6911
1 18.2712 26.8021 9.91073
1 17.4663 26.0148 9.90027
1 19.0488 26.8252 10.6911
1 19.8425 26.0315 10.6911
1 19.8314 26.8232 9.90869
1 19.0465 25.9812 9.91546
1 20.6362 26.8252 10.6911
1 21.4299 26.0315 10.6911
1 21.4167 26.804 9.89627
1 20.6278 26.0383 9.90902
1 22.2236 26.8252 10.6911
1 23.0173 26.0315 10.6911
1 23.002 26.8143 9.91657
1 22.2302 26.0128 9.90184
1 23.811 26.8252 10.6911
1 24.6047 26.0315 10.6911
1 24.6059 26.8123 9.92128
1 23.8192 26.03 9.89108
1 25.3984 26.8252 10.6911
1 26.1921 26.0315 10.6911
1 26.1674 26.8064 9.91059
1 25.4161 26.0274 9.91869
1 26.9858 26.8252 10.6911
1 27.7795 26.0315 10.6911
1 27.7599 26.7984 9.89388
1 26.9676 26.0338 9.92364
1 28.5732 26.8252 10.6911
1 29.3669 26.0315 10.6911
1 29.2937 26.8077 9.87707
1 28.5309 26.0287 9.88872
1 30 25.2378 10.6911
1 0.793701 24.4441 10.6911
1 0.809406 25.2456 9.89756
1 0.0739582 24.4339 9.84782
1 1.5874 25.2378 10.6911
1 2.3811 24.4441 10.6911
1 2.40131 25.241 9.89237
1 1.627 24.4069 9.89912
1 3.1748 25.2378 10.6911
1 3.9685 24.4441 10.6911
1 3.97855 25.2556 9.90388
1 3.18919 24.445 9.90044
1 4.7622 25.2378 10.6911
1 5.5559 24.4441 10.6911
1 5.5678 25.2428 9.88928
1 4.78043 24.4386 9.91552
1 6.3496 25.2378 10.6911
1 7.1433 24.4441 10.6911
1 7.13874 25.2384 9.91058
1 6.3679 24.453 9.91361
1 7.93701 25.2378 10.6911
1 8.73071 24.4441 10.6911
1 8.74905 25.2595 9.88991
1 7.95324 24.4487 9.89031
1 9.52441 25.2378 10.6911
1 10.3181 24.4441 10.6911
1 10.3304 25.2427 9.88103
1 9.54129 24.4324 9.91218
1 11.1118 25.2378 10.6911
1 11.9055 24.4441 10.6911
1 11.9115 25.206 9.90432
1 11.1015 24.4234 9.90426
1 12.6992 25.2378 10.6911
1 13.4929 24.4441 10.6911
1 13.5103 25.235 9.90718
1 12.7436 24.4365 9.90971
1 14.2866 25.2378 10.6911
1 15.0803 24.4441 10.6911
1 15.0847 25.2364 9.88466
1 14.286 24.4104 9.89885
1 15.874 25.2378 10.6911
1 16.6677 24.4441 10.6911
1 16.6609 25.2534 9.91052
1 15.8641 24.4566 9.89232
1 17.4614 25.2378 10.6911
1 18.2551 24.4441 10.6911
1 18.2376 25.2525 9.90091
1 17.4421 24.447 9.90838
1 19.0488 25.2378 10.6911
1 19.8425 24.4441 10.6911
1 19.8544 25.2257 9.87656
1 19.0453 24.4416 9.9029
1 20.6362 25.2378 10.6911
1 21.4299 24.4441 10.6911
1 21.3886 25.2283 9.89602
1 20.6296 24.4377 9.88477
1 22.2236 25.2378 10.6911
1 23.0173 24.4441 10.6911
1 23.0244 25.2181 9.87488
1 22.2157 24.4426 9.89987
1 23.811 25.2378 10.6911
1 24.6047 24.4441 10.6911
1 24.6023 25.2455 9.884
1 23.8251 24.4245 9.87894
1 25.3984 25.2378 10.6911
1 26.1921 24.4441 10.6911
1 26.1965 25.2526 9.8817
1 25.4008 24.4539 9.88597
1 26.9858 25.2378 10.6911
1 27.7795 24.4441 10.6911
1 27.7541 25.2344 9.89571
1 26.9825 24.4589 9.87845
1 28.5732 25.2378 10.6911
1 29.3669 24.4441 10.6911
1 29.2962 25.2289 9.87338
1 28.5473 24.4334 9.89895
1 30 23.6504 10.6911
1 0.793701 22.8567 10.6911
1 0.828567 23.6457 9.91581
1 0.0881173 22.8418 9.89024
1 1.5874 23.6504 10.6911
1 2.3811 22.8567 10.6911
1 2.39208 23.6383 9.90236
1 1.59364 22.8756 9.89953
1 3.1748 23.6504 10.6911
1 3.9685 22.8567 10.6911
1 3.96251 23.6485 9.89997
1 3.17468 22.847 9.90827
1 4.7622 23.6504 10.6911
1 5.5559 22.8567 10.6911
1 5.56009 23.6736 9.91604
1 4.79006 22.8502 9.87288
1 6.3496 23.6504 10.6911
1 7.1433 22.8567 10.6911
1 7.14725 23.6547 9.87442
1 6.3708 22.8577 9.9022
1 7.93701 23.6504 10.6911
1 8.73071 22.8567 10.6911
1 8.74338 23.6394 9.8943
1 7.94233 22.8595 9.8864
1 9.52441 23.6504 10.6911
1 10.3181 22.8567 10.6911
1 10.3158 23.6403 9.9213
1 9.51106 22.8665 9.87905
1 11.1118 23.6504 10.6911
1 11.9055 22.8567 10.6911
1 11.9164 23.6564 9.90355
1 11.1082 22.8554 9.88989
1 12.6992 23.6504 10.6911
1 13.4929 22.8567 10.6911
1 13.5049 23.6396 9.88414
1 12.6931 22.8683 9.89769
1 14.2866 23.6504 10.6911
1 15.0803 22.8567 10.6911
1 15.0726 23.6473 9.90391
1 14.2967 22.8483 9.89147
1 15.874 23.6504 10.6911
1 16.6677 22.8567 10.6911
1 16.6714 23.6556 9.90884
1 15.8503 22.8267 9.89971
1 17.4614 23.6504 10.6911
1 18.2551 22.8567 10.6911
1 18.2311 23.6427 9.89841
1 17.4393 22.8608 9.91526
1 19.0488 23.6504 10.6911
1 19.8425 22.8567 10.6911
1 19.8398 23.6464 9.88501
1 19.0472 22.8761 9.88711
1 20.6362 23.6504 10.6911
1 21.4299 22.8567 10.6911
1 21.4227 23.6486 9.88587
1 20.6243 22.842 9.91661
1 22.2236 23.6504 10.6911
1 23.0173 22.8567 10.6911
1 23.0537 23.6477 9.87584
1 22.2092 22.8584 9.87843
1 23.811 23.6504 10.6911
1 24.6047 22.8567 10.6911
1 24.5839 23.6509 9.91044
1 23.8095 22.849 9.88002
1 25.3984 23.6504 10.6911
1 26.1921 22.8567 10.6911
1 26.1804 23.6596 9.89712
1 25.3894 22.8586 9.92483
1 26.9858 23.6504 10.6911
1 27.7795 22.8567 10.6911
1 27.7715 23.6623 9.87624
1 26.9572 22.8527 9.9153
1 28.5732 23.6504 10.6911
1 29.3669 22.8567 10.6911
1 29.3034 23.6375 9.86387
1 28.569 22.8422 9.91932
1 30 22.063 10.6911
1 0.793701 21.2693 10.6911
1 0.815849 22.0438 9.88262
1 0.0574905 21.2697 9.84862
1 1.5874 22.063 10.6911
1 2.3811 21.2693 10.6911
1 2.37195 22.0669 9.94004
1 1.60583 21.2679 9.89237
1 3.1748 22.063 10.6911
1 3.9685 21.2693 10.6911
1 3.9569 22.0816 9.90849
1 3.17524 21.2671 9.87936
1 4.7622 22.063 10.6911
1 5.5559 21.2693 10.6911
1 5.57486 22.0784 9.88982
1 4.78428 21.2689 9.89816
1 6.3496 22.063 10.6911
1 7.1433 21.2693 10.6911
1 7.1363 22.0559 9.90121
1 6.33553 21.2649 9.90461
1 7.93701 22.063 10.6911
1 8.73071 21.2693 10.6911
1 8.75077 22.0621 9.92243
1 7.93999 21.258 9.89516
1 9.52441 22.063 10.6911
1 10.3181 21.2693 10.6911
1 10.3077 22.0395 9.88961
1 9.53076 21.2488 9.87482
1 11.1118 22.063 10.6911
1 11.9055 21.2693 10.6911
1 11.886 22.0796 9.8923
1 11.1235 21.251 9.90264
1 12.6992 22.063 10.6911
1 13.4929 21.2693 10.6911
1 13.4915 22.0724 9.89402
1 12.6881 21.2624 9.91372
1 14.2866 22.063 10.6911
1 15.0803 21.2693 10.6911
1 15.0733 22.0383 9.87928
1 14.2744 21.2727 9.89793
1 15.874 22.063 10.6911
1 16.6677 21.2693 10.6911
1 16.669 22.0571 9.87971
1 15.8797 21.2733 9.8986
1 17.4614 22.063 10.6911
1 18.2551 21.2693 10.6911
1 18.2318 22.0722 9.92943
1 17.4724 21.2774 9.91224
1 19.0488 22.063 10.6911
1 19.8425 21.2693 10.6911
1 19.8228 22.0469 9.90507
1 19.0254 21.2399 9.9077
1 20.6362 22.063 10.6911
1 21.4299 21.2693 10.6911
1 21.4333 22.0716 9.90617
1 20.6326 21.2708 9.92412
1 22.2236 22.063 10.6911
1 23.0173 21.2693 10.6911
1 23.016 22.0779 9.89691
1 22.2429 21.2485 9.8902
1 23.811 22.063 10.6911
1 24.6047 21.2693 10.6911
1 24.5997 22.0434 9.90348
1 23.8134 21.2874 9.89093
1 25.3984 22.063 10.6911
1 26.1921 21.2693 10.6911
1 26.1856 22.0428 9.89924
1 25.3914 21.2864 9.88851
1 26.9858 22.063 10.6911
1 27.7795 21.2693 10.6911
1 27.7558 22.0682 9.88781
1 26.9656 21.2424 9.90339
1 28.5732 22.063 10.6911
1 29.3669 21.2693 10.6911
1 29.3121 22.051 9.85012
1 28.5447 21.2691 9.89828
1 30 20.4756 10.6911
1 0.793701 19.6819 10.6911
1 0.821527 20.4881 9.88908
1 0.0654578 19.6877 9.85031
1 1.5874 20.4756 10.6911
1 2.3811 19.6819 10.6911
1 2.387 20.4486 9.88953
1 1.5988 19.6973 9.89636
1 3.1748 20.4756 10.6911
1 3.9685 19.6819 10.6911
1 3.9773 20.456 9.92022
1 3.18919 19.668 9.8945
1 4.7622 20.4756 10.6911
1 5.5559 19.6819 10.6911
1 5.57315 20.4666 9.89352
1 4.79269 19.6734 9.90859
1 6.3496 20.4756 10.6911
1 7.1433 19.6819 10.6911
1 7.14491 20.4652 9.9008
1 6.36784 19.6902 9.89445
1 7.93701 20.4756 10.6911
1 8.73071 19.6819 10.6911
1 8.74876 20.4584 9.90663
1 7.93479 19.6855 9.88424
1 9.52441 20.4756 10.6911
1 10.3181 19.6819 10.6911
1 10.3164 20.4689 9.88516
1 9.5143 19.6767 9.90373
1 11.1118 20.4756 10.6911
1 11.9055 19.6819 10.6911
1 11.9179 20.4694 9.91287
1 11.123 19.6701 9.91045
1 12.6992 20.4756 10.6911
1 13.4929 19.6819 10.6911
1 13.4959 20.4793 9.89055
1 12.6971 19.7003 9.8963
1 14.2866 20.4756 10.6911
1 15.0803 19.6819 10.6911
1 15.096 20.4913 9.88838
1 14.2682 19.6988 9.88765
1 15.874 20.4756 10.6911
1 16.6677 19.6819 10.6911
1 16.6711 20.4728 9.86999
1 15.8603 19.6823 9.90345
1 17.4614 20.4756 10.6911
1 18.2551 19.6819 10.6911
1 18.2394 20.4542 9.92161
1 17.4584 19.6572 9.90203
1 19.0488 20.4756 10.6911
1 19.8425 19.6819 10.6911
1 19.8469 20.48 9.91259
1 19.0511 19.6849 9.89995
1 20.6362 20.4756 10.6911
1 21.4299 19.6819 10.6911
1 21.4214 20.4735 9.91281
1 20.6327 19.6845 9.91556
1 22.2236 20.4756 10.6911
1 23.0173 19.6819 10.6911
1 23.0229 20.4645 9.88414
1 22.2108 19.7124 9.88764
1 23.811 20.4756 10.6911
1 24.6047 19.6819 10.6911
1 24.5765 20.4854 9.91142
1 23.8117 19.6963 9.87698
1 25.3984 20.4756 10.6911
1 26.1921 19.6819 10.6911
1 26.1764 20.4732 9.90062
1 25.378 19.6924 9.89202
1 26.9858 20.4756 10.6911
1 27.7795 19.6819 10.6911
1 27.7534 20.4766 9.88186
1 26.9614 19.665 9.91164
1 28.5732 20.4756 10.6911
1 29.3669 19.6819 10.6911
1 29.2956 20.4893 9.85221
1 28.5379 19.6899 9.89618
1 30 18.8882 10.6911
1 0.793701 18.0945 10.6911
1 0.844701 18.8887 9.87272
1 0.0579988 18.0892 9.87037
1 1.5874 18.8882 10.6911
1 2.3811 18.0945 10.6911
1 2.36705 18.8897 9.89103
1 1.60176 18.1078 9.88294
1 3.1748 18.8882 10.6911
1 3.9685 18.0945 10.6911
1 4.00451 18.8979 9.90614
1 3.20556 18.1263 9.9218
1 4.7622 18.8882 10.6911
1 5.5559 18.0945 10.6911
1 5.57871 18.8743 9.91816
1 4.78967 18.098 9.89079
1 6.3496 18.8882 10.6911
1 7.1433 18.0945 10.6911
1 7.15284 18.9144 9.88016
1 6.37057 18.1073 9.89851
1 7.93701 18.8882 10.6911
1 8.73071 18.0945 10.6911
1 8.74702 18.8859 9.90003
1 7.95149 18.1225 9.8958
1 9.52441 18.8882 10.6911
1 10.3181 18.0945 10.6911
1 10.3064 18.9067 9.91875
1 9.52724 18.0772 9.88679
1 11.1118 18.8882 10.6911
1 11.9055 18.0945 10.6911
1 11.9229 18.8744 9.9154
1 11.1447 18.1198 9.90057
1 12.6992 18.8882 10.6911
1 13.4929 18.0945 10.6911
1 13.5084 18.8776 9.89821
1 12.6994 18.0953 9.9044
1 14.2866 18.8882 10.6911
1 15.0803 18.0945 10.6911
1 15.111 18.8898 9.84429
1 14.2926 18.1004 9.90664
1 15.874 18.8882 10.6911
1 16.6677 18.0945 10.6911
1 16.6645 18.8814 9.89188
1 15.8708 18.0816 9.86476
1 17.4614 18.8882 10.6911
1 18.2551 18.0945 10.6911
1 18.2582 18.8797 9.88441
1 17.4532 18.0966 9.88007
1 19.0488 18.8882 10.6911
1 19.8425 18.0945 10.6911
1 19.8322 18.8997 9.9165
1 19.0487 18.1151 9.89337
1 20.6362 18.8882 10.6911
1 21.4299 18.0945 10.6911
1 21.4347 18.8939 9.93408
1 20.643 18.095 9.9107
1 22.2236 18.8882 10.6911
1 23.0173 18.0945 10.6911
1 22.9916 18.878 9.87814
1 22.2074 18.0819 9.90346
1 23.811 18.8882 10.6911
1 24.6047 18.0945 10.6911
1 24.5933 18.889 9.87424
1 23.8008 18.0889 9.87354
1 25.3984 18.8882 10.6911
1 26.1921 18.0945 10.6911
1 26.1846 18.9068 9.89822
1 25.3804 18.0795 9.90197
1 26.9858 18.8882 10.6911
1 27.7795 18.0945 10.6911
1 27.7563 18.8803 9.88591
1 26.9657 18.0956 9.90457
1 28.5732 18.8882 10.6911
1 29.3669 18.0945 10.6911
1 29.3187 18.8868 9.8683
1 28.5595 18.1177 9.88634
1 30 17.3008 10.6911
1 0.793701 16.5071 10.6911
1 0.820375 17.3231 9.88159
1 0.0627284 16.5178 9.85458
1 1.5874 17.3008 10.6911
1 2.3811 16.5071 10.6911
1 2.41354 17.3179 9.90167
1 1.6142 16.527 9.91774
1 3.1748 17.3008 10.6911
1 3.9685 16.5071 10.6911
1 3.97023 17.3055 9.91672
1 3.19719 16.4881 9.88501
1 4.7622 17.3008 10.6911
1 5.5559 16.5071 10.6911
1 5.57566 17.3134 9.93406
1 4.76777 16.5059 9.91987
1 6.3496 17.3008 10.6911
1 7.1433 16.5071 10.6911
1 7.15229 17.3257 9.89601
1 6.36553 16.5165 9.89086
1 7.93701 17.3008 10.6911
1 8.73071 16.5071 10.6911
1 8.71716 17.3162 9.90294
1 7.92682 16.5234 9.91495
1 9.52441 17.3008 10.6911
1 10.3181 16.5071 10.6911
1 10.3278 17.3296 9.89197
1 9.54355 16.5389 9.88218
1 11.1118 17.3008 10.6911
1 11.9055 16.5071 10.6911
1 11.9135 17.3093 9.88921
1 11.1027 16.5316 9.90722
1 12.6992 17.3008 10.6911
1 13.4929 16.5071 10.6911
1 13.5008 17.2926 9.8887
1 12.6996 16.5114 9.90711
1 14.2866 17.3008 10.6911
1 15.0803 16.5071 10.6911
1 15.0838 17.3235 9.90396
1 14.295 16.5081 9.90677
1 15.874 17.3008 10.6911
1 16.6677 16.5071 10.6911
1 16.6576 17.3046 9.89566
1 15.8828 16.4964 9.88173
1 17.4614 17.3008 10.6911
1 18.2551 16.5071 10.6911
1 18.2603 17.279 9.90491
1 17.4457 16.511 9.91169
1 19.0488 17.3008 10.6911
1 19.8425 16.5071 10.6911
1 19.8178 17.3016 9.88596
1 19.0583 16.4842 9.90264
1 20.6362 17.3008 10.6911
1 21.4299 16.5071 10.6911
1 21.4156 17.2961 9.90109
1 20.6347 16.499 9.88523
1 22.2236 17.3008 10.6911
1 23.0173 16.5071 10.6911
1 23.0224 17.2802 9.90352
1 22.2306 16.5175 9.9176
1 23.811 17.3008 10.6911
1 24.6047 16.5071 10.6911
1 24.5599 17.3 9.90645
1 23.8196 16.489 9.88298
1 25.3984 17.3008 10.6911
1 26.1921 16.5071 10.6911
1 26.1968 17.2718 9.90453
1 25.3677 16.5224 9.88703
1 26.9858 17.3008 10.6911
1 27.7795 16.5071 10.6911
1 27.7901 17.3195 9.90148
1 27.0274 16.4909 9.89747
1 28.5732 17.3008 10.6911
1 29.3669 16.5071 10.6911
1 29.3038 17.3035 9.87408
1 28.5391 16.5188 9.88921
1 30 15.7134 10.6911
1 0.793701 14.9197 10.6911
1 0.814865 15.7325 9.88403
1 0.069044 14.942 9.86888
1 1.5874 15.7134 10.6911
1 2.3811 14.9197 10.6911
1 2.39037 15.7367 9.91599
1 1.60222 14.9377 9.8838
1 3.1748 15.7134 10.6911
1 3.9685 14.9197 10.6911
1 3.99621 15.7073 9.90945
1 3.18946 14.928 9.90011
1 4.7622 15.7134 10.6911
1 5.5559 14.9197 10.6911
1 5.57405 15.6942 9.88403
1 4.75465 14.8949 9.9214
1 6.3496 15.7134 10.6911
1 7.1433 14.9197 10.6911
1 7.13204 15.7144 9.90236
1 6.35335 14.9128 9.89003
1 7.93701 15.7134 10.6911
1 8.73071 14.9197 10.6911
1 8.72045 15.731 9.88398
1 7.93683 14.9046 9.89108
1 9.52441 15.7134 10.6911
1 10.3181 14.9197 10.6911
1 10.3066 15.7361 9.87836
1 9.50966 14.9155 9.89735
1 11.1118 15.7134 10.6911
1 11.9055 14.9197 10.6911
1 11.8826 15.7202 9.90178
1 11.1156 14.921 9.89731
1 12.6992 15.7134 10.6911
1 13.4929 14.9197 10.6911
1 13.4887 15.708 9.88136
1 12.6981 14.9116 9.90406
1 14.2866 15.7134 10.6911
1 15.0803 14.9197 10.6911
1 15.0869 15.6761 9.89233
1 14.2848 14.8903 9.89128
1 15.874 15.7134 10.6911
1 16.6677 14.9197 10.6911
1 16.6746 15.72 9.91049
1 15.8765 14.944 9.8999
1 17.4614 15.7134 10.6911
1 18.2551 14.9197 10.6911
1 18.2719 15.7234 9.90722
1 17.4564 14.9347 9.91572
1 19.0488 15.7134 10.6911
1 19.8425 14.9197 10.6911
1 19.8442 15.7124 9.89446
1 19.053 14.897 9.92814
1 20.6362 15.7134 10.6911
1 21.4299 14.9197 10.6911
1 21.4377 15.7089 9.90978
1 20.623 14.9264 9.92112
1 22.2236 15.7134 10.6911
1 23.0173 14.9197 10.6911
1 23.0142 15.7085 9.88687
1 22.2221 14.9055 9.88271
1 23.811 15.7134 10.6911
1 24.6047 14.9197 10.6911
1 24.5893 15.6921 9.90106
1 23.8142 14.8977 9.91218
1 25.3984 15.7134 10.6911
1 26.1921 14.9197 10.6911
1 26.1796 15.7273 9.91087
1 25.391 14.9258 9.89068
1 26.9858 15.7134 10.6911
1 27.7795 14.9197 10.6911
1 27.7698 15.6917 9.86982
1 26.9932 14.8984 9.90548
1 28.5732 15.7134 10.6911
1 29.3669 14.9197 10.6911
1 29.3014 15.7088 9.85019
1 28.5627 14.9203 9.86489
1 30 14.126 10.6911
1 0.793701 13.3323 10.6911
1 0.823254 14.1286 9.86834
1 0.0720596 13.3488 9.87436
1 1.5874 14.126 10.6911
1 2.3811 13.3323 10.6911
1 2.39823 14.1354 9.89873
1 1.60155 13.3613 9.893
1 3.1748 14.126 10.6911
1 3.9685 13.3323 10.6911
1 3.96687 14.1227 9.8983
1 3.18215 13.3401 9.91314
1 4.7622 14.126 10.6911
1 5.5559 13.3323 10.6911
1 5.56558 14.1086 9.88201
1 4.75989 13.3622 9.8831
1 6.3496 14.126 10.6911
1 7.1433 13.3323 10.6911
1 7.15173 14.1125 9.90015
1 6.35477 13.3267 9.89155
1 7.93701 14.126 10.6911
1 8.73071 13.3323 10.6911
1 8.72707 14.1267 9.89801
1 7.9284 13.3381 9.87921
1 9.52441 14.126 10.6911
1 10.3181 13.3323 10.6911
1 10.3168 14.1176 9.89093
1 9.51716 13.3339 9.92669
1 11.1118 14.126 10.6911
1 11.9055 13.3323 10.6911
1 11.9252 14.1361 9.89139
1 11.1124 13.3397 9.90393
1 12.6992 14.126 10.6911
1 13.4929 13.3323 10.6911
1 13.4662 14.1282 9.87463
1 12.7097 13.3238 9.90285
1 14.2866 14.126 10.6911
1 15.0803 13.3323 10.6911
1 15.1082 14.1285 9.89391
1 14.2957 13.3405 9.89793
1 15.874 14.126 10.6911
1 16.6677 13.3323 10.6911
1 16.6626 14.1119 9.89888
1 15.8736 13.347 9.89972
1 17.4614 14.126 10.6911
1 18.2551 13.3323 10.6911
1 18.25 14.1275 9.89747
1 17.4427 13.327 9.92072
1 19.0488 14.126 10.6911
1 19.8425 13.3323 10.6911
1 19.8232 14.1165 9.91267
1 19.054 13.3237 9.89918
1 20.6362 14.126 10.6911
1 21.4299 13.3323 10.6911
1 21.4241 14.147 9.88622
1 20.6473 13.3183 9.8916
1 22.2236 14.126 10.6911
1 23.0173 13.3323 10.6911
1 23.0096 14.139 9.90844
1 22.2164 13.3486 9.87656
1 23.811 14.126 10.6911
1 24.6047 13.3323 10.6911
1 24.6219 14.1147 9.90506
1 23.8039 13.3523 9.88046
1 25.3984 14.126 10.6911
1 26.1921 13.3323 10.6911
1 26.1958 14.1304 9.90529
1 25.3791 13.3335 9.9132
1 26.9858 14.126 10.6911
1 27.7795 13.3323 10.6911
1 27.7784 14.1176 9.88109
1 26.9812 13.3267 9.88881
1 28.5732 14.126 10.6911
1 29.3669 13.3323 10.6911
1 29.3029 14.1372 9.86469
1 28.5329 13.3127 9.86522
1 30 12.5386 10.6911
1 0.793701 11.7449 10.6911
1 0.83504 12.5372 9.88657
1 0.0694097 11.7731 9.85537
1 1.5874 12.5386 10.6911
1 2.3811 11.7449 10.6911
1 2.40953 12.5289 9.88341
1 1.57946 11.7422 9.89515
1 3.1748 12.5386 10.6911
1 3.9685 11.7449 10.6911
1 3.98905 12.5399 9.90632
1 3.19984 11.739 9.89147
1 4.7622 12.5386 10.6911
1 5.5559 11.7449 10.6911
1 5.53533 12.5316 9.89291
1 4.7714 11.7357 9.91137
1 6.3496 12.5386 10.6911
1 7.1433 11.7449 10.6911
1 7.14328 12.5218 9.90589
1 6.35499 11.7342 9.89985
1 7.93701 12.5386 10.6911
1 8.73071 11.7449 10.6911
1 8.75586 12.5446 9.88382
1 7.95049 11.7403 9.89998
1 9.52441 12.5386 10.6911
1 10.3181 11.7449 10.6911
1 10.3164 12.5284 9.88674
1 9.52552 11.745 9.89265
1 11.1118 12.5386 10.6911
1 11.9055 11.7449 10.6911
1 11.8919 12.5332 9.92119
1 11.1036 11.7533 9.91284
1 12.6992 12.5386 10.6911
1 13.4929 11.7449 10.6911
1 13.506 12.5256 9.88424
1 12.7225 11.7416 9.91282
1 14.2866 12.5386 10.6911
1 15.0803 11.7449 10.6911
1 15.081 12.535 9.90576
1 14.2926 11.7155 9.89415
1 15.874 12.5386 10.6911
1 16.6677 11.7449 10.6911
1 16.6705 12.5461 9.90265
1 15.8762 11.7286 9.91007
1 17.4614 12.5386 10.6911
1 18.2551 11.7449 10.6911
1 18.2713 12.5322 9.89766
1 17.4625 11.7311 9.91323
1 19.0488 12.5386 10.6911
1 19.8425 11.7449 10.6911
1 19.8526 12.5249 9.88236
1 19.0492 11.7418 9.88935
1 20.6362 12.5386 10.6911
1 21.4299 11.7449 10.6911
1 21.4378 12.5113 9.90352
1 20.6506 11.7369 9.87736
1 22.2236 12.5386 10.6911
1 23.0173 11.7449 10.6911
1 22.9956 12.5481 9.88469
1 22.2603 11.7544 9.90312
1 23.811 12.5386 10.6911
1 24.6047 11.7449 10.6911
1 24.5708 12.5481 9.90734
1 23.8165 11.7589 9.89558
1 25.3984 12.5386 10.6911
1 26.1921 11.7449 10.6911
1 26.1759 12.5414 9.90257
1 25.3863 11.7628 9.91153
1 26.9858 12.5386 10.6911
1 27.7795 11.7449 10.6911
1 27.7597 12.5392 9.88993
1 26.9807 11.7524 9.90769
1 28.5732 12.5386 10.6911
1 29.3669 11.7449 10.6911
1 29.2894 12.5481 9.85428
1 28.5383 11.7718 9.8846
1 30 10.9512 10.6911
1 0.793701 10.1575 10.6911
1 0.812454 10.9271 9.89336
1 0.0387352 10.1375 9.86362
1 1.5874 10.9512 10.6911
1 2.3811 10.1575 10.6911
1 2.36298 10.9508 9.89988
1 1.59334 10.1637 9.89387
1 3.1748 10.9512 10.6911
1 3.9685 10.1575 10.6911
1 3.98487 10.9103 9.9162
1 3.1552 10.1352 9.90513
1 4.7622 10.9512 10.6911
1 5.5559 10.1575 10.6911
1 5.57497 10.9305 9.88567
1 4.77569 10.155 9.91922
1 6.3496 10.9512 10.6911
1 7.1433 10.1575 10.6911
1 7.15179 10.9306 9.91011
1 6.33956 10.172 9.90051
1 7.93701 10.9512 10.6911
1 8.73071 10.1575 10.6911
1 8.74136 10.9436 9.90021
1 7.94064 10.1399 9.88986
1 9.52441 10.9512 10.6911
1 10.3181 10.1575 10.6911
1 10.3222 10.9526 9.91022
1 9.53278 10.1531 9.89368
1 11.1118 10.9512 10.6911
1 11.9055 10.1575 10.6911
1 11.8886 10.9519 9.90271
1 11.1087 10.1651 9.88395
1 12.6992 10.9512 10.6911
1 13.4929 10.1575 10.6911
1 13.4777 10.9357 9.87962
1 12.6858 10.1342 9.88537
1 14.2866 10.9512 10.6911
1 15.0803 10.1575 10.6911
1 15.0667 10.932 9.91186
1 14.2727 10.1474 9.89143
1 15.874 10.9512 10.6911
1 16.6677 10.1575 10.6911
1 16.6968 10.9583 9.90017
1 15.8834 10.1478 9.90481
1 17.4614 10.9512 10.6911
1 18.2551 10.1575 10.6911
1 18.2474 10.9443 9.89699
1 17.476 10.1393 9.86483
1 19.0488 10.9512 10.6911
1 19.8425 10.1575 10.6911
1 19.8234 10.9484 9.90509
1 19.0384 10.1564 9.89005
1 20.6362 10.9512 10.6911
1 21.4299 10.1575 10.6911
1 21.4463 10.9594 9.92253
1 20.6427 10.1783 9.89952
1 22.2236 10.9512 10.6911
1 23.0173 10.1575 10.6911
1 23.0504 10.9723 9.89717
1 22.2321 10.1685 9.89756
1 23.811 10.9512 10.6911
1 24.6047 10.1575 10.6911
1 24.6093 10.9502 9.9048
1 23.8246 10.1791 9.90105
1 25.3984 10.9512 10.6911
1 26.1921 10.1575 10.6911
1 26.1976 10.9669 9.93503
1 25.398 10.177 9.90938
1 26.9858 10.9512 10.6911
1 27.7795 10.1575 10.6911
1 27.7742 10.9564 9.92568
1 26.9702 10.166 9.89095
1 28.5732 10.9512 10.6911
1 29.3669 10.1575 10.6911
1 29.3202 10.9521 9.86583
1 28.561 10.1523 9.8957
1 30 9.36379 10.6911
1 0.793701 8.57009 10.6911
1 0.824843 9.37502 9.89099
1 0.0774024 8.57248 9.87193
1 1.5874 9.36379 10.6911
1 2.3811 8.57009 10.6911
1 2.38495 9.34272 9.886
1 1.58904 8.55939 9.87869
1 3.1748 9.36379 10.6911
1 3.9685 8.57009 10.6911
1 3.96688 9.3685 9.8951
1 3.17016 8.56814 9.90031
1 4.7622 9.36379 10.6911
1 5.5559 8.57009 10.6911
1 5.56386 9.36271 9.90237
1 4.76927 8.55401 9.89992
1 6.3496 9.36379 10.6911
1 7.1433 8.57009 10.6911
1 7.1237 9.36509 9.90028
1 6.36917 8.57855 9.90664
1 7.93701 9.36379 10.6911
1 8.73071 8.57009 10.6911
1 8.71848 9.36592 9.90645
1 7.92231 8.56545 9.90498
1 9.52441 9.36379 10.6911
1 10.3181 8.57009 10.6911
1 10.3241 9.33057 9.91261
1 9.49622 8.58306 9.894
1 11.1118 9.36379 10.6911
1 11.9055 8.57009 10.6911
1 11.8963 9.36517 9.9041
1 11.1087 8.57941 9.90455
1 12.6992 9.36379 10.6911
1 13.4929 8.57009 10.6911
1 13.4842 9.34835 9.88958
1 12.6887 8.57496 9.91109
1 14.2866 9.36379 10.6911
1 15.0803 8.57009 10.6911
1 15.0687 9.33382 9.91371
1 14.2807 8.57114 9.90384
1 15.874 9.36379 10.6911
1 16.6677 8.57009 10.6911
1 16.6953 9.35107 9.88565
1 15.8742 8.56676 9.90203
1 17.4614 9.36379 10.6911
1 18.2551 8.57009 10.6911
1 18.2735 9.36687 9.89018
1 17.4561 8.57351 9.90774
1 19.0488 9.36379 10.6911
1 19.8425 8.57009 10.6911
1 19.8623 9.36662 9.89357
1 19.0625 8.57855 9.87307
1 20.6362 9.36379 10.6911
1 21.4299 8.57009 10.6911
1 21.4286 9.38408 9.89562
1 20.6465 8.58959 9.92892
1 22.2236 9.36379 10.6911
1 23.0173 8.57009 10.6911
1 23.0204 9.37482 9.91833
1 22.2295 8.57584 9.91208
1 23.811 9.36379 10.6911
1 24.6047 8.57009 10.6911
1 24.5969 9.35735 9.91305
1 23.8179 8.55855 9.92199
1 25.3984 9.36379 10.6911
1 26.1921 8.57009 10.6911
1 26.1701 9.38488 9.90125
1 25.396 8.57446 9.8911
1 26.9858 9.36379 10.6911
1 27.7795 8.57009 10.6911
1 27.7487 9.38134 9.8905
1 26.9704 8.55744 9.91707
1 28.5732 9.36379 10.6911
1 29.3669 8.57009 10.6911
1 29.3081 9.34675 9.87566
1 28.5181 8.57076 9.91002
1 30 7.77639 10.6911
1 0.793701 6.98268 10.6911
1 0.813394 7.77975 9.87465
1 0.0743443 6.97902 9.84886
1 1.5874 7.77639 10.6911
1 2.3811 6.98268 10.6911
1 2.41484 7.76016 9.8968
1 1.60075 7.01757 9.91067
1 3.1748 7.77639 10.6911
1 3.9685 6.98268 10.6911
1 3.98283 7.75611 9.89536
1 3.18102 7.0026 9.88521
1 4.7622 7.77639 10.6911
1 5.5559 6.98268 10.6911
1 5.57396 7.76038 9.91862
1 4.77936 6.9883 9.86771
1 6.3496 7.77639 10.6911
1 7.1433 6.98268 10.6911
1 7.17073 7.77002 9.89513
1 6.35376 6.99098 9.89372
1 7.93701 7.77639 10.6911
1 8.73071 6.98268 10.6911
1 8.73399 7.7737 9.88439
1 7.929 6.97058 9.91818
1 9.52441 7.77639 10.6911
1 10.3181 6.98268 10.6911
1 10.3229 7.79064 9.92238
1 9.52193 6.98417 9.90847
1 11.1118 7.77639 10.6911
1 11.9055 6.98268 10.6911
1 11.9056 7.77846 9.90757
1 11.1182 6.97013 9.92237
1 12.6992 7.77639 10.6911
1 13.4929 6.98268 10.6911
1 13.4995 7.78276 9.91041
1 12.6842 6.99415 9.87512
1 14.2866 7.77639 10.6911
1 15.0803 6.98268 10.6911
1 15.0775 7.76253 9.88838
1 14.2689 6.95061 9.90475
1 15.874 7.77639 10.6911
1 16.6677 6.98268 10.6911
1 16.6988 7.77393 9.87627
1 15.88 6.97956 9.90427
1 17.4614 7.77639 10.6911
1 18.2551 6.98268 10.6911
1 18.2625 7.79401 9.87957
1 17.4864 7.00389 9.89039
1 19.0488 7.77639 10.6911
1 19.8425 6.98268 10.6911
1 19.8611 7.79286 9.89052
1 19.053 6.99048 9.90481
1 20.6362 7.77639 10.6911
1 21.4299 6.98268 10.6911
1 21.4297 7.7698 9.93229
1 20.6415 7.0043 9.92353
1 22.2236 7.77639 10.6911
1 23.0173 6.98268 10.6911
1 23.0344 7.77054 9.92428
1 22.2584 6.9878 9.88121
1 23.811 7.77639 10.6911
1 24.6047 6.98268 10.6911
1 24.6106 7.77682 9.88605
1 23.8352 6.97165 9.90544
1 25.3984 7.77639 10.6911
1 26.1921 6.98268 10.6911
1 26.1949 7.8109 9.90273
1 25.4118 6.98474 9.90921
1 26.9858 7.77639 10.6911
1 27.7795 6.98268 10.6911
1 27.7528 7.76173 9.8954
1 26.9424 6.96628 9.88571
1 28.5732 7.77639 10.6911
1 29.3669 6.98268 10.6911
1 29.3141 7.78254 9.87273
1 28.5535 6.98945 9.88748
1 30 6.18898 10.6911
1 0.793701 5.39528 10.6911
1 0.842113 6.20273 9.91004
1 0.0644478 5.40818 9.85796
1 1.5874 6.18898 10.6911
1 2.3811 5.39528 10.6911
1 2.39212 6.16485 9.88913
1 1.58571 5.38712 9.9147
1 3.1748 6.18898 10.6911
1 3.9685 5.39528 10.6911
1 4.01044 6.20233 9.91943
1 3.18026 5.41254 9.90197
1 4.7622 6.18898 10.6911
1 5.5559 5.39528 10.6911
1 5.56849 6.17145 9.88834
1 4.74449 5.39563 9.90695
1 6.3496 6.18898 10.6911
1 7.1433 5.39528 10.6911
1 7.15932 6.18626 9.88364
1 6.36268 5.38746 9.89566
1 7.93701 6.18898 10.6911
1 8.73071 5.39528 10.6911
1 8.69595 6.19015 9.91253
1 7.916 5.41693 9.93472
1 9.52441 6.18898 10.6911