9376
Atoms. Timestep: 40000
1 3.75 3.55271e-15 10.8689
1 4.5437 29.2063 10.8689
1 4.54884 29.9441 10.0582
1 3.81061 29.1607 10.029
1 5.3374 3.55271e-15 10.8689
1 6.1311 29.2063 10.8689
1 6.1508 29.9423 10.0491
1 5.35903 29.1509 10.0842
1 6.9248 3.55271e-15 10.8689
1 7.7185 29.2063 10.8689
1 7.72733 29.9298 10.0274
1 6.94543 29.2028 10.073
1 8.5122 3.55271e-15 10.8689
1 9.3059 29.2063 10.8689
1 9.31566 29.9375 10.0406
1 8.53442 29.1858 10.0435
1 10.0996 3.55271e-15 10.8689
1 10.8933 29.2063 10.8689
1 10.878 29.9256 10.0504
1 10.098 29.1635 10.0879
1 11.687 3.55271e-15 10.8689
1 12.4807 29.2063 10.8689
1 12.4762 29.9302 10.0355
1 11.6759 29.1765 10.0647
1 13.2744 3.55271e-15 10.8689
1 14.0681 29.2063 10.8689
1 14.0948 29.9199 10.0314
1 13.288 29.1581 10.0585
1 14.8618 3.55271e-15 10.8689
1 15.6555 29.2063 10.8689
1 15.6513 29.9418 10.0364
1 14.8696 29.1652 10.08
1 16.4492 3.55271e-15 10.8689
1 17.2429 29.2063 10.8689
1 17.2232 29.9541 10.0214
1 16.4345 29.1741 10.0489
1 18.0366 3.55271e-15 10.8689
1 18.8303 29.2063 10.8689
1 18.8212 29.9012 10.0202
1 18.0178 29.1897 10.075
1 19.624 3.55271e-15 10.8689
1 20.4177 29.2063 10.8689
1 20.4284 29.9449 10.0267
1 19.604 29.1888 10.0824
1 21.2114 3.55271e-15 10.8689
1 22.0051 29.2063 10.8689
1 22.0104 29.9561 10.051
1 21.2046 29.1625 10.0526
1 22.7988 3.55271e-15 10.8689
1 23.5925 29.2063 10.8689
1 23.6229 29.9101 10.0265
1 22.7964 29.1899 10.0757
1 24.3862 3.55271e-15 10.8689
1 25.1799 29.2063 10.8689
1 25.197 29.9391 10.0583
1 24.3871 29.1893 10.0535
1 25.9736 3.55271e-15 10.8689
1 26.7673 29.2063 10.8689
1 26.7833 29.919 10.048
1 25.9854 29.1776 10.0637
1 27.561 3.55271e-15 10.8689
1 28.3547 29.2063 10.8689
1 28.3739 29.9551 10.0384
1 27.5605 29.1729 10.0587
1 29.1484 3.55271e-15 10.8689
1 29.9421 29.2063 10.8689
1 29.9511 29.9624 10.0429
1 29.1532 29.1933 10.0836
1 0.735818 3.55271e-15 10.8689
1 1.52952 29.2063 10.8689
1 1.52994 29.9489 10.0329
1 0.742913 29.1894 10.068
1 2.32322 3.55271e-15 10.8689
1 3.11692 29.2063 10.8689
1 3.04246 29.9297 9.98133
1 2.29586 29.168 10.0578
1 3.75 28.4126 10.8689
1 4.5437 27.6189 10.8689
1 4.57249 28.3939 10.0656
1 3.82006 27.6148 10.0619
1 5.3374 28.4126 10.8689
1 6.1311 27.6189 10.8689
1 6.17615 28.4058 10.0806
1 5.34851 27.625 10.0698
1 6.9248 28.4126 10.8689
1 7.7185 27.6189 10.8689
1 7.74111 28.4123 10.0963
1 6.94511 27.6174 10.0883
1 8.5122 28.4126 10.8689
1 9.3059 27.6189 10.8689
1 9.30172 28.3895 10.0819
1 8.519 27.6298 10.0676
1 10.0996 28.4126 10.8689
1 10.8933 27.6189 10.8689
1 10.8955 28.4143 10.0519
1 10.0856 27.6316 10.0801
1 11.687 28.4126 10.8689
1 12.4807 27.6189 10.8689
1 12.4934 28.379 10.0643
1 11.6725 27.6119 10.1026
1 13.2744 28.4126 10.8689
1 14.0681 27.6189 10.8689
1 14.0283 28.3797 10.0688
1 13.2348 27.6091 10.0623
1 14.8618 28.4126 10.8689
1 15.6555 27.6189 10.8689
1 15.6553 28.3878 10.1154
1 14.8697 27.6184 10.0798
1 16.4492 28.4126 10.8689
1 17.2429 27.6189 10.8689
1 17.223 28.4196 10.0517
1 16.437 27.6099 10.0927
1 18.0366 28.4126 10.8689
1 18.8303 27.6189 10.8689
1 18.8347 28.3917 10.0725
1 18.0244 27.6011 10.0519
1 19.624 28.4126 10.8689
1 20.4177 27.6189 10.8689
1 20.4057 28.4233 10.0778
1 19.5985 27.6134 10.0776
1 21.2114 28.4126 10.8689
1 22.0051 27.6189 10.8689
1 22.0179 28.3759 10.0854
1 21.193 27.6023 10.0689
1 22.7988 28.4126 10.8689
1 23.5925 27.6189 10.8689
1 23.5942 28.3969 10.0944
1 22.7739 27.5909 10.0903
1 24.3862 28.4126 10.8689
1 25.1799 27.6189 10.8689
1 25.1677 28.3973 10.0735
1 24.3976 27.6097 10.0907
1 25.9736 28.4126 10.8689
1 26.7673 27.6189 10.8689
1 26.7766 28.3733 10.0872
1 25.9872 27.6149 10.0862
1 27.561 28.4126 10.8689
1 28.3547 27.6189 10.8689
1 28.349 28.3873 10.0461
1 27.5637 27.5712 10.0888
1 29.1484 28.4126 10.8689
1 29.9421 27.6189 10.8689
1 29.9266 28.3863 10.0833
1 29.1423 27.5956 10.0897
1 0.735818 28.4126 10.8689
1 1.52952 27.6189 10.8689
1 1.53974 28.3928 10.0714
1 0.719472 27.6254 10.0933
1 2.32322 28.4126 10.8689
1 3.11692 27.6189 10.8689
1 3.04685 28.3808 10.0278
1 2.30347 27.6084 10.0477
1 3.75 26.8252 10.8689
1 4.5437 26.0315 10.8689
1 4.55611 26.8121 10.0606
1 3.826 26.0003 10.0362
1 5.3374 26.8252 10.8689
1 6.1311 26.0315 10.8689
1 6.13448 26.8328 10.073
1 5.37934 26.0125 10.0564
1 6.9248 26.8252 10.8689
1 7.7185 26.0315 10.8689
1 7.73893 26.7947 10.0836
1 6.94451 26.0343 10.1047
1 8.5122 26.8252 10.8689
1 9.3059 26.0315 10.8689
1 9.30697 26.848 10.1006
1 8.50411 26.0166 10.0813
1 10.0996 26.8252 10.8689
1 10.8933 26.0315 10.8689
1 10.899 26.831 10.0674
1 10.0786 26.0252 10.0733
1 11.687 26.8252 10.8689
1 12.4807 26.0315 10.8689
1 12.492 26.8183 10.1045
1 11.6765 26.0262 10.0866
1 13.2744 26.8252 10.8689
1 14.0681 26.0315 10.8689
1 14.0808 26.8282 10.06
1 13.2924 26.0242 10.1165
1 14.8618 26.8252 10.8689
1 15.6555 26.0315 10.8689
1 15.6205 26.8089 10.078
1 14.859 26.0076 10.0791
1 16.4492 26.8252 10.8689
1 17.2429 26.0315 10.8689
1 17.2433 26.8061 10.0847
1 16.4459 26.0262 10.0751
1 18.0366 26.8252 10.8689
1 18.8303 26.0315 10.8689
1 18.8388 26.8137 10.0632
1 18.0307 25.9916 10.0959
1 19.624 26.8252 10.8689
1 20.4177 26.0315 10.8689
1 20.4107 26.8289 10.088
1 19.6176 26.019 10.0653
1 21.2114 26.8252 10.8689
1 22.0051 26.0315 10.8689
1 21.9894 26.8059 10.0917
1 21.2052 26.0328 10.0623
1 22.7988 26.8252 10.8689
1 23.5925 26.0315 10.8689
1 23.6207 26.801 10.0798
1 22.7996 25.9982 10.0658
1 24.3862 26.8252 10.8689
1 25.1799 26.0315 10.8689
1 25.1813 26.8244 10.0752
1 24.3742 26.015 10.051
1 25.9736 26.8252 10.8689
1 26.7673 26.0315 10.8689
1 26.7645 26.8238 10.0803
1 25.9931 26.0309 10.079
1 27.561 26.8252 10.8689
1 28.3547 26.0315 10.8689
1 28.3537 26.7802 10.0869
1 27.5495 26.0232 10.0861
1 29.1484 26.8252 10.8689
1 29.9421 26.0315 10.8689
1 29.9566 26.8096 10.0909
1 29.1315 26.0047 10.0712
1 0.735818 26.8252 10.8689
1 1.52952 26.0315 10.8689
1 1.5117 26.8318 10.0796
1 0.734404 26.0146 10.0934
1 2.32322 26.8252 10.8689
1 3.11692 26.0315 10.8689
1 3.04396 26.795 10.0405
1 2.28492 26.0438 10.0831
1 3.75 25.2378 10.8689
1 4.5437 24.4441 10.8689
1 4.58291 25.2201 10.0758
1 3.81695 24.4443 10.0636
1 5.3374 25.2378 10.8689
1 6.1311 24.4441 10.8689
1 6.14725 25.2285 10.0837
1 5.35592 24.4449 10.078
1 6.9248 25.2378 10.8689
1 7.7185 24.4441 10.8689
1 7.7036 25.2513 10.0955
1 6.91428 24.4448 10.0584
1 8.5122 25.2378 10.8689
1 9.3059 24.4441 10.8689
1 9.31997 25.2404 10.0982
1 8.51615 24.4409 10.0781
1 10.0996 25.2378 10.8689
1 10.8933 24.4441 10.8689
1 10.8949 25.2469 10.1057
1 10.0916 24.4585 10.0582
1 11.687 25.2378 10.8689
1 12.4807 24.4441 10.8689
1 12.4855 25.2323 10.0942
1 11.7127 24.4347 10.081
1 13.2744 25.2378 10.8689
1 14.0681 24.4441 10.8689
1 14.0709 25.217 10.0898
1 13.2784 24.4366 10.0727
1 14.8618 25.2378 10.8689
1 15.6555 24.4441 10.8689
1 15.6535 25.2248 10.0836
1 14.8584 24.4332 10.1049
1 16.4492 25.2378 10.8689
1 17.2429 24.4441 10.8689
1 17.2273 25.2407 10.0722
1 16.4308 24.4288 10.0935
1 18.0366 25.2378 10.8689
1 18.8303 24.4441 10.8689
1 18.8391 25.247 10.0646
1 18.0389 24.4584 10.071
1 19.624 25.2378 10.8689
1 20.4177 24.4441 10.8689
1 20.417 25.2234 10.0889
1 19.6183 24.4402 10.0821
1 21.2114 25.2378 10.8689
1 22.0051 24.4441 10.8689
1 21.9889 25.2447 10.0912
1 21.2232 24.4011 10.0664
1 22.7988 25.2378 10.8689
1 23.5925 24.4441 10.8689
1 23.613 25.243 10.0623
1 22.8142 24.4674 10.0711
1 24.3862 25.2378 10.8689
1 25.1799 24.4441 10.8689
1 25.2054 25.2386 10.0968
1 24.4063 24.4469 10.0698
1 25.9736 25.2378 10.8689
1 26.7673 24.4441 10.8689
1 26.7875 25.2301 10.096
1 25.986 24.4251 10.0724
1 27.561 25.2378 10.8689
1 28.3547 24.4441 10.8689
1 28.3514 25.2205 10.065
1 27.56 24.4295 10.0746
1 29.1484 25.2378 10.8689
1 29.9421 24.4441 10.8689
1 29.9195 25.2212 10.0777
1 29.1381 24.4413 10.0878
1 0.735818 25.2378 10.8689
1 1.52952 24.4441 10.8689
1 1.51094 25.2334 10.0519
1 0.72231 24.4341 10.0853
1 2.32322 25.2378 10.8689
1 3.11692 24.4441 10.8689
1 3.05676 25.2158 10.0452
1 2.28345 24.4416 10.084
1 3.75 23.6504 10.8689
1 4.5437 22.8567 10.8689
1 4.58198 23.6541 10.0627
1 3.80961 22.8615 10.0078
1 5.3374 23.6504 10.8689
1 6.1311 22.8567 10.8689
1 6.14962 23.6519 10.0767
1 5.35873 22.8517 10.0604
1 6.9248 23.6504 10.8689
1 7.7185 22.8567 10.8689
1 7.71779 23.6397 10.0727
1 6.92557 22.8749 10.0711
1 8.5122 23.6504 10.8689
1 9.3059 22.8567 10.8689
1 9.29372 23.6629 10.0949
1 8.51796 22.837 10.0714
1 10.0996 23.6504 10.8689
1 10.8933 22.8567 10.8689
1 10.8727 23.6625 10.1023
1 10.093 22.8569 10.06
1 11.687 23.6504 10.8689
1 12.4807 22.8567 10.8689
1 12.4937 23.6402 10.088
1 11.6677 22.8523 10.0986
1 13.2744 23.6504 10.8689
1 14.0681 22.8567 10.8689
1 14.0583 23.6236 10.0898
1 13.242 22.8477 10.0887
1 14.8618 23.6504 10.8689
1 15.6555 22.8567 10.8689
1 15.668 23.6358 10.0918
1 14.8841 22.8361 10.0894
1 16.4492 23.6504 10.8689
1 17.2429 22.8567 10.8689
1 17.226 23.6477 10.0629
1 16.4518 22.8534 10.0983
1 18.0366 23.6504 10.8689
1 18.8303 22.8567 10.8689
1 18.8139 23.6503 10.0607
1 18.0221 22.833 10.0888
1 19.624 23.6504 10.8689
1 20.4177 22.8567 10.8689
1 20.4339 23.6538 10.0363
1 19.6116 22.8735 10.0584
1 21.2114 23.6504 10.8689
1 22.0051 22.8567 10.8689
1 22.0067 23.6331 10.0711
1 21.2136 22.8538 10.0839
1 22.7988 23.6504 10.8689
1 23.5925 22.8567 10.8689
1 23.5799 23.658 10.0831
1 22.7806 22.8544 10.0703
1 24.3862 23.6504 10.8689
1 25.1799 22.8567 10.8689
1 25.1734 23.6382 10.0812
1 24.3858 22.8564 10.0619
1 25.9736 23.6504 10.8689
1 26.7673 22.8567 10.8689
1 26.7657 23.6564 10.0588
1 25.9752 22.8571 10.0693
1 27.561 23.6504 10.8689
1 28.3547 22.8567 10.8689
1 28.3676 23.64 10.0876
1 27.547 22.8446 10.0763
1 29.1484 23.6504 10.8689
1 29.9421 22.8567 10.8689
1 29.9358 23.6443 10.0673
1 29.1565 22.8607 10.0922
1 0.735818 23.6504 10.8689
1 1.52952 22.8567 10.8689
1 1.5288 23.6282 10.0519
1 0.714304 22.8551 10.0641
1 2.32322 23.6504 10.8689
1 3.11692 22.8567 10.8689
1 3.02558 23.6535 10.023
1 2.33509 22.8647 10.059
1 3.75 22.063 10.8689
1 4.5437 21.2693 10.8689
1 4.57711 22.0782 10.0776
1 3.81321 21.2588 10.0359
1 5.3374 22.063 10.8689
1 6.1311 21.2693 10.8689
1 6.12095 22.0699 10.0699
1 5.33361 21.2846 10.0981
1 6.9248 22.063 10.8689
1 7.7185 21.2693 10.8689
1 7.70955 22.0412 10.08
1 6.91478 21.2462 10.0692
1 8.5122 22.063 10.8689
1 9.3059 21.2693 10.8689
1 9.31761 22.0862 10.0731
1 8.51486 21.2762 10.0687
1 10.0996 22.063 10.8689
1 10.8933 21.2693 10.8689
1 10.8874 22.0675 10.0762
1 10.0734 21.2822 10.0663
1 11.687 22.063 10.8689
1 12.4807 21.2693 10.8689
1 12.4759 22.0713 10.0752
1 11.6722 21.2702 10.0504
1 13.2744 22.063 10.8689
1 14.0681 21.2693 10.8689
1 14.0656 22.079 10.0731
1 13.2864 21.2519 10.0653
1 14.8618 22.063 10.8689
1 15.6555 21.2693 10.8689
1 15.7049 22.0669 10.0739
1 14.8637 21.2583 10.0628
1 16.4492 22.063 10.8689
1 17.2429 21.2693 10.8689
1 17.2175 22.0547 10.0705
1 16.4632 21.2733 10.0716
1 18.0366 22.063 10.8689
1 18.8303 21.2693 10.8689
1 18.8431 22.0508 10.0651
1 18.0413 21.258 10.0912
1 19.624 22.063 10.8689
1 20.4177 21.2693 10.8689
1 20.4261 22.0575 10.0719
1 19.6245 21.2594 10.0731
1 21.2114 22.063 10.8689
1 22.0051 21.2693 10.8689
1 21.9994 22.0614 10.0779
1 21.1975 21.2556 10.0861
1 22.7988 22.063 10.8689
1 23.5925 21.2693 10.8689
1 23.5814 22.0629 10.0679
1 22.8058 21.256 10.0473
1 24.3862 22.063 10.8689
1 25.1799 21.2693 10.8689
1 25.2066 22.0417 10.074
1 24.3739 21.3002 10.0703
1 25.9736 22.063 10.8689
1 26.7673 21.2693 10.8689
1 26.7615 22.0606 10.065
1 25.9866 21.2658 10.0947
1 27.561 22.063 10.8689
1 28.3547 21.2693 10.8689
1 28.3236 22.0486 10.0871
1 27.5538 21.2571 10.0765
1 29.1484 22.063 10.8689
1 29.9421 21.2693 10.8689
1 29.9547 22.052 10.069
1 29.1634 21.2787 10.0712
1 0.735818 22.063 10.8689
1 1.52952 21.2693 10.8689
1 1.53818 22.0758 10.1005
1 0.760562 21.2845 10.1002
1 2.32322 22.063 10.8689
1 3.11692 21.2693 10.8689
1 3.04308 22.0582 10.0371
1 2.30095 21.2774 10.0912
1 3.75 20.4756 10.8689
1 4.5437 19.6819 10.8689
1 4.58323 20.4713 10.0444
1 3.79456 19.6865 10.0391
1 5.3374 20.4756 10.8689
1 6.1311 19.6819 10.8689
1 6.15292 20.5003 10.0715
1 5.3738 19.6886 10.0848
1 6.9248 20.4756 10.8689
1 7.7185 19.6819 10.8689
1 7.73526 20.4911 10.0633
1 6.93899 19.6823 10.0799
1 8.5122 20.4756 10.8689
1 9.3059 19.6819 10.8689
1 9.3345 20.4709 10.0938
1 8.52431 19.6684 10.0863
1 10.0996 20.4756 10.8689
1 10.8933 19.6819 10.8689
1 10.8808 20.4661 10.0696
1 10.1085 19.6812 10.0744
1 11.687 20.4756 10.8689
1 12.4807 19.6819 10.8689
1 12.466 20.4762 10.0764
1 11.683 19.6763 10.0871
1 13.2744 20.4756 10.8689
1 14.0681 19.6819 10.8689
1 14.0838 20.4627 10.0794
1 13.2511 19.6796 10.0857
1 14.8618 20.4756 10.8689
1 15.6555 19.6819 10.8689
1 15.672 20.4841 10.097
1 14.8681 19.687 10.0894
1 16.4492 20.4756 10.8689
1 17.2429 19.6819 10.8689
1 17.233 20.4815 10.0892
1 16.4369 19.6732 10.0704
1 18.0366 20.4756 10.8689
1 18.8303 19.6819 10.8689
1 18.8458 20.4792 10.0468
1 18.0297 19.6543 10.0644
1 19.624 20.4756 10.8689
1 20.4177 19.6819 10.8689
1 20.4192 20.476 10.0699
1 19.6457 19.693 10.0609
1 21.2114 20.4756 10.8689
1 22.0051 19.6819 10.8689
1 21.9764 20.4974 10.0549
1 21.2275 19.6798 10.0704
1 22.7988 20.4756 10.8689
1 23.5925 19.6819 10.8689
1 23.5906 20.4752 10.0686
1 22.8096 19.7099 10.0766
1 24.3862 20.4756 10.8689
1 25.1799 19.6819 10.8689
1 25.1742 20.4694 10.0889
1 24.3816 19.7069 10.0777
1 25.9736 20.4756 10.8689
1 26.7673 19.6819 10.8689
1 26.7822 20.4656 10.0599
1 25.9779 19.6606 10.0864
1 27.561 20.4756 10.8689
1 28.3547 19.6819 10.8689
1 28.3593 20.4737 10.0966
1 27.5526 19.6773 10.057
1 29.1484 20.4756 10.8689
1 29.9421 19.6819 10.8689
1 29.9509 20.457 10.0913
1 29.1515 19.6798 10.0732
1 0.735818 20.4756 10.8689
1 1.52952 19.6819 10.8689
1 1.51911 20.4736 10.0696
1 0.715519 19.683 10.0991
1 2.32322 20.4756 10.8689
1 3.11692 19.6819 10.8689
1 3.0375 20.4949 10.0504
1 2.29323 19.6894 10.0888
1 3.75 18.8882 10.8689
1 4.5437 18.0945 10.8689
1 4.5845 18.9177 10.0527
1 3.836 18.116 10.0654
1 5.3374 18.8882 10.8689
1 6.1311 18.0945 10.8689
1 6.15207 18.8972 10.0976
1 5.35451 18.1044 10.0751
1 6.9248 18.8882 10.8689
1 7.7185 18.0945 10.8689
1 7.73727 18.9139 10.0793
1 6.93242 18.1127 10.0923
1 8.5122 18.8882 10.8689
1 9.3059 18.0945 10.8689
1 9.28829 18.8853 10.0956
1 8.51215 18.1108 10.0711
1 10.0996 18.8882 10.8689
1 10.8933 18.0945 10.8689
1 10.8916 18.8911 10.0737
1 10.1144 18.0846 10.0762
1 11.687 18.8882 10.8689
1 12.4807 18.0945 10.8689
1 12.4968 18.8593 10.0655
1 11.7013 18.0968 10.0732
1 13.2744 18.8882 10.8689
1 14.0681 18.0945 10.8689
1 14.0913 18.9089 10.0754
1 13.272 18.0931 10.0981
1 14.8618 18.8882 10.8689
1 15.6555 18.0945 10.8689
1 15.6285 18.9079 10.0699
1 14.8609 18.1157 10.0716
1 16.4492 18.8882 10.8689
1 17.2429 18.0945 10.8689
1 17.2653 18.8835 10.078
1 16.4511 18.1055 10.0965
1 18.0366 18.8882 10.8689
1 18.8303 18.0945 10.8689
1 18.8165 18.8835 10.0617
1 18.0132 18.0917 10.0702
1 19.624 18.8882 10.8689
1 20.4177 18.0945 10.8689
1 20.4357 18.8835 10.0746
1 19.619 18.09 10.0613
1 21.2114 18.8882 10.8689
1 22.0051 18.0945 10.8689
1 22.0291 18.8939 10.0759
1 21.2291 18.1176 10.0771
1 22.7988 18.8882 10.8689
1 23.5925 18.0945 10.8689
1 23.5985 18.8882 10.0712
1 22.8089 18.1021 10.0641
1 24.3862 18.8882 10.8689
1 25.1799 18.0945 10.8689
1 25.1745 18.8792 10.0522
1 24.3792 18.0999 10.0785
1 25.9736 18.8882 10.8689
1 26.7673 18.0945 10.8689
1 26.7328 18.9207 10.0646
1 25.9777 18.1222 10.0743
1 27.561 18.8882 10.8689
1 28.3547 18.0945 10.8689
1 28.3596 18.8765 10.0678
1 27.5448 18.084 10.0737
1 29.1484 18.8882 10.8689
1 29.9421 18.0945 10.8689
1 29.9085 18.8936 10.0667
1 29.1517 18.1249 10.0829
1 0.735818 18.8882 10.8689
1 1.52952 18.0945 10.8689
1 1.49794 18.8932 10.078
1 0.718758 18.0958 10.068
1 2.32322 18.8882 10.8689
1 3.11692 18.0945 10.8689
1 3.05986 18.9043 10.0461
1 2.3008 18.0917 10.0942
1 3.75 17.3008 10.8689
1 4.5437 16.5071 10.8689
1 4.55786 17.2798 10.0659
1 3.83578 16.4936 10.0457
1 5.3374 17.3008 10.8689
1 6.1311 16.5071 10.8689
1 6.1421 17.2953 10.1034
1 5.33971 16.4832 10.0663
1 6.9248 17.3008 10.8689
1 7.7185 16.5071 10.8689
1 7.74418 17.3134 10.0799
1 6.92639 16.4957 10.0898
1 8.5122 17.3008 10.8689
1 9.3059 16.5071 10.8689
1 9.31639 17.3014 10.0943
1 8.4965 16.5024 10.0453
1 10.0996 17.3008 10.8689
1 10.8933 16.5071 10.8689
1 10.9002 17.315 10.0739
1 10.0873 16.5089 10.0688
1 11.687 17.3008 10.8689
1 12.4807 16.5071 10.8689
1 12.4666 17.2833 10.0754
1 11.6953 16.5139 10.0697
1 13.2744 17.3008 10.8689
1 14.0681 16.5071 10.8689
1 14.0589 17.3303 10.0859
1 13.2888 16.4729 10.0636
1 14.8618 17.3008 10.8689
1 15.6555 16.5071 10.8689
1 15.6523 17.3087 10.0866
1 14.8519 16.5083 10.0851
1 16.4492 17.3008 10.8689
1 17.2429 16.5071 10.8689
1 17.2056 17.2923 10.0777
1 16.4188 16.5048 10.0763
1 18.0366 17.3008 10.8689
1 18.8303 16.5071 10.8689
1 18.8308 17.2959 10.0719
1 18.0439 16.5222 10.1008
1 19.624 17.3008 10.8689
1 20.4177 16.5071 10.8689
1 20.4179 17.3231 10.0694
1 19.618 16.5032 10.082
1 21.2114 17.3008 10.8689
1 22.0051 16.5071 10.8689
1 22.0114 17.2836 10.1007
1 21.2095 16.4915 10.0891
1 22.7988 17.3008 10.8689
1 23.5925 16.5071 10.8689
1 23.5841 17.3218 10.0951
1 22.7966 16.5022 10.0883
1 24.3862 17.3008 10.8689
1 25.1799 16.5071 10.8689
1 25.1998 17.3176 10.0463
1 24.3872 16.5115 10.0712
1 25.9736 17.3008 10.8689
1 26.7673 16.5071 10.8689
1 26.7554 17.2945 10.0641
1 25.9651 16.5443 10.0818
1 27.561 17.3008 10.8689
1 28.3547 16.5071 10.8689
1 28.353 17.3154 10.0606
1 27.5444 16.5152 10.0954
1 29.1484 17.3008 10.8689
1 29.9421 16.5071 10.8689
1 29.9289 17.3033 10.0938
1 29.1228 16.5047 10.0723
1 0.735818 17.3008 10.8689
1 1.52952 16.5071 10.8689
1 1.52356 17.3076 10.0758
1 0.713615 16.5184 10.1112
1 2.32322 17.3008 10.8689
1 3.11692 16.5071 10.8689
1 3.07219 17.2951 10.0408
1 2.29406 16.4931 10.0611
1 3.75 15.7134 10.8689
1 4.5437 14.9197 10.8689
1 4.58907 15.698 10.0616
1 3.84195 14.9253 10.0434
1 5.3374 15.7134 10.8689
1 6.1311 14.9197 10.8689
1 6.13836 15.6984 10.0954
1 5.34962 14.9246 10.0636
1 6.9248 15.7134 10.8689
1 7.7185 14.9197 10.8689
1 7.73162 15.7099 10.0633
1 6.94758 14.9183 10.0491
1 8.5122 15.7134 10.8689
1 9.3059 14.9197 10.8689
1 9.29988 15.7002 10.0693
1 8.52461 14.9416 10.0754
1 10.0996 15.7134 10.8689
1 10.8933 14.9197 10.8689
1 10.9074 15.6987 10.0699
1 10.1054 14.8982 10.0894
1 11.687 15.7134 10.8689
1 12.4807 14.9197 10.8689
1 12.4698 15.7248 10.0709
1 11.6934 14.9029 10.0628
1 13.2744 15.7134 10.8689
1 14.0681 14.9197 10.8689
1 14.0601 15.7094 10.0806
1 13.2512 14.9309 10.0833
1 14.8618 15.7134 10.8689
1 15.6555 14.9197 10.8689
1 15.6226 15.7061 10.0706
1 14.8579 14.9212 10.0828
1 16.4492 15.7134 10.8689
1 17.2429 14.9197 10.8689
1 17.2273 15.718 10.0772
1 16.4452 14.927 10.0681
1 18.0366 15.7134 10.8689
1 18.8303 14.9197 10.8689
1 18.8113 15.7122 10.0891
1 18.0473 14.9105 10.0671
1 19.624 15.7134 10.8689
1 20.4177 14.9197 10.8689
1 20.4116 15.6983 10.0706
1 19.6146 14.9328 10.0835
1 21.2114 15.7134 10.8689
1 22.0051 14.9197 10.8689
1 22.0218 15.6947 10.0657
1 21.237 14.9373 10.0797
1 22.7988 15.7134 10.8689
1 23.5925 14.9197 10.8689
1 23.6038 15.7172 10.0801
1 22.8155 14.9111 10.0622
1 24.3862 15.7134 10.8689
1 25.1799 14.9197 10.8689
1 25.1849 15.7116 10.0873
1 24.405 14.9266 10.0823
1 25.9736 15.7134 10.8689
1 26.7673 14.9197 10.8689
1 26.7322 15.7307 10.079
1 25.9671 14.9179 10.0938
1 27.561 15.7134 10.8689
1 28.3547 14.9197 10.8689
1 28.3409 15.7219 10.0792
1 27.5223 14.9282 10.071
1 29.1484 15.7134 10.8689
1 29.9421 14.9197 10.8689
1 29.9368 15.6982 10.0968
1 29.1382 14.9243 10.0745
1 0.735818 15.7134 10.8689
1 1.52952 14.9197 10.8689
1 1.51614 15.7174 10.0902
1 0.738614 14.9138 10.046
1 2.32322 15.7134 10.8689
1 3.11692 14.9197 10.8689
1 3.04066 15.7181 10.0252
1 2.29083 14.9081 10.0708
1 3.75 14.126 10.8689
1 4.5437 13.3323 10.8689
1 4.56544 14.1385 10.0437
1 3.81185 13.3178 10.0377
1 5.3374 14.126 10.8689
1 6.1311 13.3323 10.8689
1 6.16302 14.1333 10.0766
1 5.36491 13.3334 10.0742
1 6.9248 14.126 10.8689
1 7.7185 13.3323 10.8689
1 7.73463 14.1427 10.0605
1 6.93047 13.3514 10.0916
1 8.5122 14.126 10.8689
1 9.3059 13.3323 10.8689
1 9.29168 14.1281 10.0577
1 8.48846 13.3388 10.0735
1 10.0996 14.126 10.8689
1 10.8933 13.3323 10.8689
1 10.9032 14.1288 10.0474
1 10.0993 13.3356 10.0834
1 11.687 14.126 10.8689
1 12.4807 13.3323 10.8689
1 12.467 14.1157 10.0685
1 11.6752 13.2908 10.1035
1 13.2744 14.126 10.8689
1 14.0681 13.3323 10.8689
1 14.0568 14.1491 10.0737
1 13.2472 13.341 10.0806
1 14.8618 14.126 10.8689
1 15.6555 13.3323 10.8689
1 15.6674 14.1049 10.0738
1 14.8975 13.3128 10.0693
1 16.4492 14.126 10.8689
1 17.2429 13.3323 10.8689
1 17.2382 14.1358 10.1031
1 16.4456 13.3243 10.0812
1 18.0366 14.126 10.8689
1 18.8303 13.3323 10.8689
1 18.8422 14.1388 10.0495
1 18.0439 13.3629 10.0824
1 19.624 14.126 10.8689
1 20.4177 13.3323 10.8689
1 20.4306 14.1392 10.0719
1 19.648 13.3275 10.055
1 21.2114 14.126 10.8689
1 22.0051 13.3323 10.8689
1 22.0026 14.1078 10.0738
1 21.2421 13.3441 10.0588
1 22.7988 14.126 10.8689
1 23.5925 13.3323 10.8689
1 23.5873 14.1359 10.0744
1 22.8054 13.3039 10.07
1 24.3862 14.126 10.8689
1 25.1799 13.3323 10.8689
1 25.1687 14.1311 10.084
1 24.3704 13.3183 10.0785
1 25.9736 14.126 10.8689
1 26.7673 13.3323 10.8689
1 26.7745 14.0934 10.0747
1 25.9793 13.3118 10.0639
1 27.561 14.126 10.8689
1 28.3547 13.3323 10.8689
1 28.3421 14.1485 10.0783
1 27.5424 13.3281 10.0772
1 29.1484 14.126 10.8689
1 29.9421 13.3323 10.8689
1 29.9302 14.1454 10.0955
1 29.1418 13.3349 10.0679
1 0.735818 14.126 10.8689
1 1.52952 13.3323 10.8689
1 1.48468 14.1306 10.0737
1 0.744134 13.3176 10.0713
1 2.32322 14.126 10.8689
1 3.11692 13.3323 10.8689
1 3.01337 14.1217 10.046
1 2.29306 13.3404 10.0647
1 3.75 12.5386 10.8689
1 4.5437 11.7449 10.8689
1 4.58183 12.5154 10.0721
1 3.81987 11.715 10.0379
1 5.3374 12.5386 10.8689
1 6.1311 11.7449 10.8689
1 6.14775 12.5389 10.1021
1 5.36105 11.7646 10.0496
1 6.9248 12.5386 10.8689
1 7.7185 11.7449 10.8689
1 7.70937 12.5434 10.0683
1 6.95111 11.7509 10.0575
1 8.5122 12.5386 10.8689
1 9.3059 11.7449 10.8689
1 9.30238 12.5606 10.08
1 8.4949 11.7412 10.0771
1 10.0996 12.5386 10.8689
1 10.8933 11.7449 10.8689
1 10.8926 12.5121 10.0822
1 10.1089 11.7612 10.0973
1 11.687 12.5386 10.8689
1 12.4807 11.7449 10.8689
1 12.5034 12.5255 10.0572
1 11.7007 11.7342 10.0649
1 13.2744 12.5386 10.8689
1 14.0681 11.7449 10.8689
1 14.05 12.5643 10.0775
1 13.2826 11.7608 10.0687
1 14.8618 12.5386 10.8689
1 15.6555 11.7449 10.8689
1 15.6536 12.515 10.0736
1 14.8411 11.7263 10.0775
1 16.4492 12.5386 10.8689
1 17.2429 11.7449 10.8689
1 17.2289 12.5462 10.0821
1 16.4493 11.7476 10.0779
1 18.0366 12.5386 10.8689
1 18.8303 11.7449 10.8689
1 18.8505 12.5398 10.0781
1 18.0419 11.7624 10.0941
1 19.624 12.5386 10.8689
1 20.4177 11.7449 10.8689
1 20.427 12.5493 10.0563
1 19.6182 11.76 10.0565
1 21.2114 12.5386 10.8689
1 22.0051 11.7449 10.8689
1 21.9974 12.5305 10.055
1 21.2042 11.7358 10.0875
1 22.7988 12.5386 10.8689
1 23.5925 11.7449 10.8689
1 23.6015 12.5206 10.0774
1 22.7792 11.7416 10.0824
1 24.3862 12.5386 10.8689
1 25.1799 11.7449 10.8689
1 25.1457 12.5417 10.0689
1 24.37 11.7366 10.0748
1 25.9736 12.5386 10.8689
1 26.7673 11.7449 10.8689
1 26.7716 12.5338 10.0844
1 25.9806 11.7576 10.0528
1 27.561 12.5386 10.8689
1 28.3547 11.7449 10.8689
1 28.339 12.5677 10.0946
1 27.5565 11.7358 10.089
1 29.1484 12.5386 10.8689
1 29.9421 11.7449 10.8689
1 29.9348 12.5239 10.1022
1 29.1378 11.73 10.0993
1 0.735818 12.5386 10.8689
1 1.52952 11.7449 10.8689
1 1.50056 12.5171 10.0781
1 0.721587 11.7424 10.0533
1 2.32322 12.5386 10.8689
1 3.11692 11.7449 10.8689
1 3.03994 12.5299 10.0481
1 2.28535 11.7297 10.0555
1 3.75 10.9512 10.8689
1 4.5437 10.1575 10.8689
1 4.58133 10.9558 10.0726
1 3.83066 10.1574 10.039
1 5.3374 10.9512 10.8689
1 6.1311 10.1575 10.8689
1 6.14533 10.9698 10.0781
1 5.36302 10.1772 10.0718
1 6.9248 10.9512 10.8689
1 7.7185 10.1575 10.8689
1 7.73228 10.957 10.0734
1 6.92823 10.1589 10.0702
1 8.5122 10.9512 10.8689
1 9.3059 10.1575 10.8689
1 9.29529 10.942 10.0852
1 8.52038 10.1758 10.0416
1 10.0996 10.9512 10.8689
1 10.8933 10.1575 10.8689
1 10.9006 10.9408 10.0618
1 10.1003 10.1633 10.0737
1 11.687 10.9512 10.8689
1 12.4807 10.1575 10.8689
1 12.4806 10.9554 10.0683
1 11.6847 10.1615 10.0847
1 13.2744 10.9512 10.8689
1 14.0681 10.1575 10.8689
1 14.0566 10.9481 10.0728
1 13.2795 10.1714 10.0881
1 14.8618 10.9512 10.8689
1 15.6555 10.1575 10.8689
1 15.6341 10.9475 10.085
1 14.8493 10.1414 10.0842
1 16.4492 10.9512 10.8689
1 17.2429 10.1575 10.8689
1 17.2383 10.9559 10.0662
1 16.4693 10.1695 10.0907
1 18.0366 10.9512 10.8689
1 18.8303 10.1575 10.8689
1 18.8216 10.9382 10.0329
1 18.0418 10.1451 10.0639
1 19.624 10.9512 10.8689
1 20.4177 10.1575 10.8689
1 20.4247 10.9654 10.0696
1 19.6415 10.16 10.0908
1 21.2114 10.9512 10.8689
1 22.0051 10.1575 10.8689
1 22.0004 10.9413 10.0626
1 21.204 10.1776 10.0637
1 22.7988 10.9512 10.8689
1 23.5925 10.1575 10.8689
1 23.571 10.9457 10.0642
1 22.7964 10.1551 10.0786
1 24.3862 10.9512 10.8689
1 25.1799 10.1575 10.8689
1 25.1789 10.9568 10.0564
1 24.3867 10.1636 10.0624
1 25.9736 10.9512 10.8689
1 26.7673 10.1575 10.8689
1 26.7601 10.9329 10.0641
1 25.972 10.1912 10.0707
1 27.561 10.9512 10.8689
1 28.3547 10.1575 10.8689
1 28.3487 10.9408 10.0818
1 27.5515 10.1585 10.073
1 29.1484 10.9512 10.8689
1 29.9421 10.1575 10.8689
1 29.914 10.9493 10.0462
1 29.1207 10.1546 10.0573
1 0.735818 10.9512 10.8689
1 1.52952 10.1575 10.8689
1 1.515 10.9484 10.0591
1 0.712437 10.1668 10.0759
1 2.32322 10.9512 10.8689
1 3.11692 10.1575 10.8689
1 3.06818 10.9274 10.059
1 2.30411 10.1623 10.0428
1 3.75 9.36379 10.8689
1 4.5437 8.57009 10.8689
1 4.57678 9.33689 10.0828
1 3.7983 8.58539 10.0653
1 5.3374 9.36379 10.8689
1 6.1311 8.57009 10.8689
1 6.12207 9.38309 10.072
1 5.354 8.55962 10.0712
1 6.9248 9.36379 10.8689
1 7.7185 8.57009 10.8689
1 7.74736 9.36404 10.091
1 6.90497 8.56501 10.0685
1 8.5122 9.36379 10.8689
1 9.3059 8.57009 10.8689
1 9.32045 9.36362 10.0795
1 8.51261 8.55906 10.0913
1 10.0996 9.36379 10.8689
1 10.8933 8.57009 10.8689
1 10.8819 9.38035 10.0765
1 10.0798 8.60026 10.0797
1 11.687 9.36379 10.8689
1 12.4807 8.57009 10.8689
1 12.5041 9.37605 10.1037
1 11.6811 8.56737 10.0759
1 13.2744 9.36379 10.8689
1 14.0681 8.57009 10.8689
1 14.0724 9.36946 10.0589
1 13.2634 8.54667 10.0988
1 14.8618 9.36379 10.8689
1 15.6555 8.57009 10.8689
1 15.6626 9.36795 10.1045
1 14.8349 8.57644 10.0929
1 16.4492 9.36379 10.8689
1 17.2429 8.57009 10.8689
1 17.2509 9.37012 10.0979
1 16.4499 8.56448 10.0798
1 18.0366 9.36379 10.8689
1 18.8303 8.57009 10.8689
1 18.8341 9.37588 10.069
1 18.0482 8.56674 10.083
1 19.624 9.36379 10.8689
1 20.4177 8.57009 10.8689
1 20.4033 9.37367 10.0937
1 19.6389 8.57112 10.0818
1 21.2114 9.36379 10.8689
1 22.0051 8.57009 10.8689
1 21.9671 9.37355 10.0852
1 21.2262 8.57924 10.0526
1 22.7988 9.36379 10.8689
1 23.5925 8.57009 10.8689
1 23.5946 9.35805 10.0949
1 22.7876 8.57372 10.0675
1 24.3862 9.36379 10.8689
1 25.1799 8.57009 10.8689
1 25.1875 9.36529 10.0994
1 24.3491 8.57289 10.09
1 25.9736 9.36379 10.8689
1 26.7673 8.57009 10.8689
1 26.7518 9.36767 10.0538
1 25.9842 8.57926 10.0587
1 27.561 9.36379 10.8689
1 28.3547 8.57009 10.8689
1 28.3499 9.36695 10.0616
1 27.5638 8.55037 10.0904
1 29.1484 9.36379 10.8689
1 29.9421 8.57009 10.8689
1 29.9422 9.35705 10.0763
1 29.132 8.57397 10.0751
1 0.735818 9.36379 10.8689
1 1.52952 8.57009 10.8689
1 1.53977 9.37374 10.0557
1 0.712278 8.55255 10.0899
1 2.32322 9.36379 10.8689
1 3.11692 8.57009 10.8689
1 3.04602 9.34802 10.0521
1 2.30116 8.57291 10.0402
1 3.75 7.77639 10.8689
1 4.5437 6.98268 10.8689
1 4.55616 7.78375 10.0352
1 3.80094 6.9843 10.0372
1 5.3374 7.77639 10.8689
1 6.1311 6.98268 10.8689
1 6.14607 7.77733 10.074
1 5.35996 6.99547 10.0719
1 6.9248 7.77639 10.8689
1 7.7185 6.98268 10.8689
1 7.7071 7.79632 10.0601
1 6.94391 6.99151 10.0847
1 8.5122 7.77639 10.8689
1 9.3059 6.98268 10.8689
1 9.32148 7.77918 10.0872
1 8.5257 6.99448 10.0939
1 10.0996 7.77639 10.8689
1 10.8933 6.98268 10.8689
1 10.8897 7.77627 10.0896
1 10.0944 6.98703 10.1056
1 11.687 7.77639 10.8689
1 12.4807 6.98268 10.8689
1 12.4549 7.7656 10.06
1 11.6999 6.97961 10.069
1 13.2744 7.77639 10.8689
1 14.0681 6.98268 10.8689
1 14.0792 7.77401 10.065
1 13.2653 6.9681 10.0622
1 14.8618 7.77639 10.8689
1 15.6555 6.98268 10.8689
1 15.6311 7.77715 10.0558
1 14.8802 6.99079 10.0906
1 16.4492 7.77639 10.8689
1 17.2429 6.98268 10.8689
1 17.2559 7.76792 10.0669
1 16.4661 6.98627 10.0796
1 18.0366 7.77639 10.8689
1 18.8303 6.98268 10.8689
1 18.8653 7.80556 10.0817
1 18.053 6.97616 10.0684
1 19.624 7.77639 10.8689
1 20.4177 6.98268 10.8689
1 20.4042 7.7891 10.0787
1 19.6067 6.98144 10.096
1 21.2114 7.77639 10.8689
1 22.0051 6.98268 10.8689
1 21.9912 7.77768 10.0843
1 21.2079 6.98518 10.0775
1 22.7988 7.77639 10.8689
1 23.5925 6.98268 10.8689
1 23.6055 7.78953 10.0754
1 22.8057 7.00233 10.0864
1 24.3862 7.77639 10.8689
1 25.1799 6.98268 10.8689
1 25.1576 7.78789 10.0513
1 24.3672 6.96896 10.0931
1 25.9736 7.77639 10.8689
1 26.7673 6.98268 10.8689
1 26.7323 7.78659 10.0895
1 25.9983 6.9847 10.0532
1 27.561 7.77639 10.8689
1 28.3547 6.98268 10.8689
1 28.3532 7.77359 10.0778
1 27.542 7.00637 10.0615
1 29.1484 7.77639 10.8689
1 29.9421 6.98268 10.8689
1 29.9385 7.76609 10.0867
1 29.1293 6.98503 10.0872
1 0.735818 7.77639 10.8689
1 1.52952 6.98268 10.8689
1 1.52076 7.77637 10.0922
1 0.728656 6.99576 10.0796
1 2.32322 7.77639 10.8689
1 3.11692 6.98268 10.8689
1 3.08169 7.79183 10.0472
1 2.30964 6.97822 10.0676
1 3.75 6.18898 10.8689
1 4.5437 5.39528 10.8689
1 4.5903 6.22464 10.0805
1 3.83195 5.42637 10.0595
1 5.3374 6.18898 10.8689
1 6.1311 5.39528 10.8689
1 6.16818 6.20223 10.0748
1 5.38126 5.42714 10.0747
1 6.9248 6.18898 10.8689
1 7.7185 5.39528 10.8689
1 7.71912 6.19656 10.0517
1 6.94782 5.40097 10.0558
1 8.5122 6.18898 10.8689
1 9.3059 5.39528 10.8689
1 9.29291 6.18641 10.0808
1 8.50533 5.38921 10.054
1 10.0996 6.18898 10.8689
1 10.8933 5.39528 10.8689
1 10.8885 6.20768 10.0767
1 10.1157 5.39395 10.0761
1 11.687 6.18898 10.8689
1 12.4807 5.39528 10.8689
1 12.4916 6.21302 10.0482
1 11.7102 5.38676 10.0743
1 13.2744 6.18898 10.8689