9376
Atoms. Timestep: 4000000
1 30 3.55271e-15 11.3276
1 0.793701 29.2063 11.3276
1 0.838874 29.9421 10.4965
1 0.0621914 29.1945 10.4789
1 1.5874 3.55271e-15 11.3276
1 2.3811 29.2063 11.3276
1 2.41273 29.9413 10.5089
1 1.61303 29.2158 10.529
1 3.1748 3.55271e-15 11.3276
1 3.9685 29.2063 11.3276
1 3.99932 29.9147 10.5049
1 3.20236 29.1707 10.5427
1 4.7622 3.55271e-15 11.3276
1 5.5559 29.2063 11.3276
1 5.54823 29.9314 10.4845
1 4.78033 29.1856 10.5167
1 6.3496 3.55271e-15 11.3276
1 7.1433 29.2063 11.3276
1 7.13544 29.9526 10.5102
1 6.36354 29.1877 10.5301
1 7.93701 3.55271e-15 11.3276
1 8.73071 29.2063 11.3276
1 8.74301 29.9378 10.525
1 7.9328 29.167 10.5426
1 9.52441 3.55271e-15 11.3276
1 10.3181 29.2063 11.3276
1 10.3036 29.9265 10.5119
1 9.51161 29.1602 10.5377
1 11.1118 3.55271e-15 11.3276
1 11.9055 29.2063 11.3276
1 11.9116 29.9152 10.5065
1 11.1286 29.2028 10.5314
1 12.6992 3.55271e-15 11.3276
1 13.4929 29.2063 11.3276
1 13.5044 29.9506 10.4755
1 12.7045 29.1881 10.5231
1 14.2866 3.55271e-15 11.3276
1 15.0803 29.2063 11.3276
1 15.0802 29.9142 10.5058
1 14.2749 29.2008 10.5381
1 15.874 3.55271e-15 11.3276
1 16.6677 29.2063 11.3276
1 16.7022 29.9157 10.5063
1 15.8718 29.1643 10.5215
1 17.4614 3.55271e-15 11.3276
1 18.2551 29.2063 11.3276
1 18.2561 29.9046 10.5011
1 17.4687 29.1522 10.5488
1 19.0488 3.55271e-15 11.3276
1 19.8425 29.2063 11.3276
1 19.8511 29.9299 10.4901
1 19.0655 29.1459 10.5431
1 20.6362 3.55271e-15 11.3276
1 21.4299 29.2063 11.3276
1 21.4507 29.9264 10.4923
1 20.6134 29.1662 10.5237
1 22.2236 3.55271e-15 11.3276
1 23.0173 29.2063 11.3276
1 23.0199 29.9442 10.5161
1 22.2526 29.1831 10.5051
1 23.811 3.55271e-15 11.3276
1 24.6047 29.2063 11.3276
1 24.61 29.9096 10.5061
1 23.8211 29.1606 10.5227
1 25.3984 3.55271e-15 11.3276
1 26.1921 29.2063 11.3276
1 26.1795 29.9215 10.4903
1 25.4059 29.1546 10.5046
1 26.9858 3.55271e-15 11.3276
1 27.7795 29.2063 11.3276
1 27.7279 29.9483 10.501
1 26.9563 29.1852 10.5271
1 28.5732 3.55271e-15 11.3276
1 29.3669 29.2063 11.3276
1 29.305 29.8985 10.453
1 28.5186 29.1566 10.5314
1 30 28.4126 11.3276
1 0.793701 27.6189 11.3276
1 0.829884 28.4243 10.519
1 0.0640483 27.6046 10.4811
1 1.5874 28.4126 11.3276
1 2.3811 27.6189 11.3276
1 2.404 28.4082 10.5371
1 1.61094 27.6094 10.5253
1 3.1748 28.4126 11.3276
1 3.9685 27.6189 11.3276
1 3.99533 28.3954 10.5269
1 3.17105 27.6213 10.5469
1 4.7622 28.4126 11.3276
1 5.5559 27.6189 11.3276
1 5.56579 28.3866 10.551
1 4.79329 27.5972 10.5416
1 6.3496 28.4126 11.3276
1 7.1433 27.6189 11.3276
1 7.11842 28.3994 10.5359
1 6.34903 27.6035 10.5003
1 7.93701 28.4126 11.3276
1 8.73071 27.6189 11.3276
1 8.6987 28.3741 10.534
1 7.91167 27.5882 10.5313
1 9.52441 28.4126 11.3276
1 10.3181 27.6189 11.3276
1 10.3189 28.4088 10.55
1 9.53555 27.587 10.5254
1 11.1118 28.4126 11.3276
1 11.9055 27.6189 11.3276
1 11.9159 28.3925 10.5119
1 11.1349 27.6074 10.5244
1 12.6992 28.4126 11.3276
1 13.4929 27.6189 11.3276
1 13.4886 28.3963 10.5373
1 12.6983 27.582 10.5415
1 14.2866 28.4126 11.3276
1 15.0803 27.6189 11.3276
1 15.0745 28.4031 10.5229
1 14.2962 27.6109 10.5338
1 15.874 28.4126 11.3276
1 16.6677 27.6189 11.3276
1 16.6568 28.3823 10.5525
1 15.8742 27.5952 10.5172
1 17.4614 28.4126 11.3276
1 18.2551 27.6189 11.3276
1 18.251 28.3953 10.5422
1 17.4779 27.6058 10.539
1 19.0488 28.4126 11.3276
1 19.8425 27.6189 11.3276
1 19.8435 28.3788 10.5109
1 19.0516 27.5845 10.5248
1 20.6362 28.4126 11.3276
1 21.4299 27.6189 11.3276
1 21.4111 28.4021 10.5092
1 20.6247 27.5836 10.5207
1 22.2236 28.4126 11.3276
1 23.0173 27.6189 11.3276
1 23.0308 28.3988 10.549
1 22.2196 27.5985 10.5152
1 23.811 28.4126 11.3276
1 24.6047 27.6189 11.3276
1 24.6236 28.3983 10.5199
1 23.8256 27.621 10.5392
1 25.3984 28.4126 11.3276
1 26.1921 27.6189 11.3276
1 26.1896 28.403 10.5334
1 25.3918 27.6045 10.5338
1 26.9858 28.4126 11.3276
1 27.7795 27.6189 11.3276
1 27.7734 28.3825 10.5376
1 26.9872 27.6208 10.5359
1 28.5732 28.4126 11.3276
1 29.3669 27.6189 11.3276
1 29.299 28.3989 10.4946
1 28.5592 27.6183 10.5292
1 30 26.8252 11.3276
1 0.793701 26.0315 11.3276
1 0.834329 26.8229 10.5343
1 0.0564223 26.0361 10.4982
1 1.5874 26.8252 11.3276
1 2.3811 26.0315 11.3276
1 2.38264 26.8325 10.5295
1 1.60624 26.0375 10.518
1 3.1748 26.8252 11.3276
1 3.9685 26.0315 11.3276
1 3.96465 26.8418 10.5176
1 3.18525 26.0584 10.5199
1 4.7622 26.8252 11.3276
1 5.5559 26.0315 11.3276
1 5.55542 26.7974 10.5309
1 4.76708 26.0328 10.5162
1 6.3496 26.8252 11.3276
1 7.1433 26.0315 11.3276
1 7.13232 26.8138 10.5174
1 6.34649 26.0472 10.5144
1 7.93701 26.8252 11.3276
1 8.73071 26.0315 11.3276
1 8.74113 26.8297 10.5304
1 7.94146 26.0525 10.5492
1 9.52441 26.8252 11.3276
1 10.3181 26.0315 11.3276
1 10.3142 26.8226 10.5545
1 9.50848 26.018 10.5537
1 11.1118 26.8252 11.3276
1 11.9055 26.0315 11.3276
1 11.9117 26.8121 10.5552
1 11.104 26.0268 10.5491
1 12.6992 26.8252 11.3276
1 13.4929 26.0315 11.3276
1 13.5 26.8174 10.5531
1 12.6716 26.0059 10.5191
1 14.2866 26.8252 11.3276
1 15.0803 26.0315 11.3276
1 15.0853 26.8025 10.542
1 14.2746 26.0228 10.5293
1 15.874 26.8252 11.3276
1 16.6677 26.0315 11.3276
1 16.6792 26.8221 10.4977
1 15.8935 26.0364 10.521
1 17.4614 26.8252 11.3276
1 18.2551 26.0315 11.3276
1 18.2608 26.8125 10.5638
1 17.4598 25.9992 10.554
1 19.0488 26.8252 11.3276
1 19.8425 26.0315 11.3276
1 19.8207 26.8058 10.5264
1 19.0568 25.9962 10.5261
1 20.6362 26.8252 11.3276
1 21.4299 26.0315 11.3276
1 21.4355 26.8136 10.5335
1 20.6358 26.0194 10.5504
1 22.2236 26.8252 11.3276
1 23.0173 26.0315 11.3276
1 23.0093 26.8267 10.5208
1 22.2351 26.0238 10.5557
1 23.811 26.8252 11.3276
1 24.6047 26.0315 11.3276
1 24.5887 26.8247 10.5312
1 23.7771 26.0374 10.5207
1 25.3984 26.8252 11.3276
1 26.1921 26.0315 11.3276
1 26.1877 26.8192 10.5201
1 25.3815 26.0381 10.5317
1 26.9858 26.8252 11.3276
1 27.7795 26.0315 11.3276
1 27.7993 26.8089 10.5243
1 26.9947 26.033 10.5349
1 28.5732 26.8252 11.3276
1 29.3669 26.0315 11.3276
1 29.2984 26.8005 10.4957
1 28.5443 26.0256 10.5183
1 30 25.2378 11.3276
1 0.793701 24.4441 11.3276
1 0.822966 25.2296 10.5263
1 0.0754367 24.4154 10.5336
1 1.5874 25.2378 11.3276
1 2.3811 24.4441 11.3276
1 2.37318 25.2521 10.5362
1 1.62035 24.4253 10.5184
1 3.1748 25.2378 11.3276
1 3.9685 24.4441 11.3276
1 3.94915 25.2363 10.5307
1 3.17563 24.4396 10.5244
1 4.7622 25.2378 11.3276
1 5.5559 24.4441 11.3276
1 5.5399 25.2582 10.5639
1 4.74262 24.4384 10.5335
1 6.3496 25.2378 11.3276
1 7.1433 24.4441 11.3276
1 7.16064 25.2526 10.5275
1 6.35536 24.4514 10.5259
1 7.93701 25.2378 11.3276
1 8.73071 24.4441 11.3276
1 8.71051 25.2207 10.5218
1 7.9334 24.4569 10.5175
1 9.52441 25.2378 11.3276
1 10.3181 24.4441 11.3276
1 10.311 25.2412 10.5595
1 9.52038 24.4429 10.5404
1 11.1118 25.2378 11.3276
1 11.9055 24.4441 11.3276
1 11.9026 25.2277 10.5379
1 11.0895 24.4316 10.5422
1 12.6992 25.2378 11.3276
1 13.4929 24.4441 11.3276
1 13.4762 25.2576 10.5331
1 12.7088 24.4403 10.5193
1 14.2866 25.2378 11.3276
1 15.0803 24.4441 11.3276
1 15.0937 25.241 10.534
1 14.2838 24.4454 10.5094
1 15.874 25.2378 11.3276
1 16.6677 24.4441 11.3276
1 16.674 25.2165 10.5367
1 15.8917 24.4483 10.5335
1 17.4614 25.2378 11.3276
1 18.2551 24.4441 11.3276
1 18.2414 25.2294 10.5394
1 17.4617 24.4303 10.5544
1 19.0488 25.2378 11.3276
1 19.8425 24.4441 11.3276
1 19.847 25.2176 10.5356
1 19.0579 24.4329 10.5432
1 20.6362 25.2378 11.3276
1 21.4299 24.4441 11.3276
1 21.4128 25.2286 10.5391
1 20.6513 24.4316 10.5464
1 22.2236 25.2378 11.3276
1 23.0173 24.4441 11.3276
1 23.0292 25.2246 10.5562
1 22.2241 24.4423 10.5373
1 23.811 25.2378 11.3276
1 24.6047 24.4441 11.3276
1 24.597 25.2372 10.5184
1 23.8007 24.4169 10.5298
1 25.3984 25.2378 11.3276
1 26.1921 24.4441 11.3276
1 26.2007 25.2342 10.5546
1 25.399 24.4128 10.5424
1 26.9858 25.2378 11.3276
1 27.7795 24.4441 11.3276
1 27.785 25.2533 10.5277
1 26.9818 24.456 10.5374
1 28.5732 25.2378 11.3276
1 29.3669 24.4441 11.3276
1 29.2946 25.2159 10.4848
1 28.5384 24.446 10.5177
1 30 23.6504 11.3276
1 0.793701 22.8567 11.3276
1 0.83552 23.6548 10.5409
1 0.0501314 22.8467 10.5012
1 1.5874 23.6504 11.3276
1 2.3811 22.8567 11.3276
1 2.40529 23.6424 10.5323
1 1.60319 22.8665 10.5235
1 3.1748 23.6504 11.3276
1 3.9685 22.8567 11.3276
1 3.96999 23.6432 10.539
1 3.1993 22.8489 10.5544
1 4.7622 23.6504 11.3276
1 5.5559 22.8567 11.3276
1 5.53925 23.6612 10.5167
1 4.75436 22.8827 10.5415
1 6.3496 23.6504 11.3276
1 7.1433 22.8567 11.3276
1 7.15093 23.6715 10.5291
1 6.32879 22.8448 10.5457
1 7.93701 23.6504 11.3276
1 8.73071 22.8567 11.3276
1 8.73574 23.6493 10.5208
1 7.94746 22.8697 10.538
1 9.52441 23.6504 11.3276
1 10.3181 22.8567 11.3276
1 10.304 23.6305 10.5194
1 9.52939 22.84 10.5297
1 11.1118 23.6504 11.3276
1 11.9055 22.8567 11.3276
1 11.8906 23.6722 10.5396
1 11.0954 22.8348 10.5442
1 12.6992 23.6504 11.3276
1 13.4929 22.8567 11.3276
1 13.4982 23.6447 10.5292
1 12.6842 22.8915 10.5345
1 14.2866 23.6504 11.3276
1 15.0803 22.8567 11.3276
1 15.0845 23.6563 10.5291
1 14.3204 22.8556 10.5379
1 15.874 23.6504 11.3276
1 16.6677 22.8567 11.3276
1 16.6537 23.6582 10.5395
1 15.8942 22.8552 10.5499
1 17.4614 23.6504 11.3276
1 18.2551 22.8567 11.3276
1 18.2609 23.6573 10.5428
1 17.4691 22.8709 10.5466
1 19.0488 23.6504 11.3276
1 19.8425 22.8567 11.3276
1 19.8666 23.642 10.5408
1 19.0456 22.8495 10.5441
1 20.6362 23.6504 11.3276
1 21.4299 22.8567 11.3276
1 21.4298 23.6283 10.5317
1 20.65 22.8479 10.5403
1 22.2236 23.6504 11.3276
1 23.0173 22.8567 11.3276
1 22.9821 23.636 10.5212
1 22.2046 22.8487 10.5397
1 23.811 23.6504 11.3276
1 24.6047 22.8567 11.3276
1 24.6157 23.6623 10.5259
1 23.8011 22.8578 10.5501
1 25.3984 23.6504 11.3276
1 26.1921 22.8567 11.3276
1 26.1767 23.6262 10.5201
1 25.4006 22.8193 10.5311
1 26.9858 23.6504 11.3276
1 27.7795 22.8567 11.3276
1 27.7766 23.6727 10.526
1 26.9821 22.8401 10.5357
1 28.5732 23.6504 11.3276
1 29.3669 22.8567 11.3276
1 29.2999 23.6339 10.5152
1 28.5228 22.8492 10.5327
1 30 22.063 11.3276
1 0.793701 21.2693 11.3276
1 0.833252 22.0666 10.5596
1 0.0502684 21.2628 10.5261
1 1.5874 22.063 11.3276
1 2.3811 21.2693 11.3276
1 2.37505 22.0608 10.5318
1 1.61989 21.2894 10.5438
1 3.1748 22.063 11.3276
1 3.9685 21.2693 11.3276
1 3.98979 22.0813 10.5351
1 3.18475 21.2887 10.5345
1 4.7622 22.063 11.3276
1 5.5559 21.2693 11.3276
1 5.53958 22.0617 10.5383
1 4.74328 21.2849 10.5274
1 6.3496 22.063 11.3276
1 7.1433 21.2693 11.3276
1 7.13505 22.0603 10.5452
1 6.34264 21.2509 10.5355
1 7.93701 22.063 11.3276
1 8.73071 21.2693 11.3276
1 8.71756 22.0623 10.5175
1 7.94636 21.2452 10.5371
1 9.52441 22.063 11.3276
1 10.3181 21.2693 11.3276
1 10.311 22.0319 10.531
1 9.50035 21.2495 10.5137
1 11.1118 22.063 11.3276
1 11.9055 21.2693 11.3276
1 11.8819 22.0714 10.5423
1 11.1087 21.2724 10.5301
1 12.6992 22.063 11.3276
1 13.4929 21.2693 11.3276
1 13.4928 22.0543 10.5221
1 12.7121 21.2565 10.5125
1 14.2866 22.063 11.3276
1 15.0803 21.2693 11.3276
1 15.0854 22.0609 10.5363
1 14.2724 21.2719 10.5585
1 15.874 22.063 11.3276
1 16.6677 21.2693 11.3276
1 16.6773 22.042 10.5676
1 15.8795 21.2701 10.5499
1 17.4614 22.063 11.3276
1 18.2551 21.2693 11.3276
1 18.2546 22.0617 10.5366
1 17.4501 21.2714 10.5349
1 19.0488 22.063 11.3276
1 19.8425 21.2693 11.3276
1 19.8596 22.0729 10.5284
1 19.0563 21.2535 10.586
1 20.6362 22.063 11.3276
1 21.4299 21.2693 11.3276
1 21.4104 22.0608 10.5259
1 20.6355 21.2663 10.5528
1 22.2236 22.063 11.3276
1 23.0173 21.2693 11.3276
1 22.9976 22.0882 10.5526
1 22.1852 21.2552 10.5439
1 23.811 22.063 11.3276
1 24.6047 21.2693 11.3276
1 24.5949 22.0731 10.5323
1 23.8188 21.2751 10.5485
1 25.3984 22.063 11.3276
1 26.1921 21.2693 11.3276
1 26.2045 22.0738 10.5248
1 25.3951 21.2842 10.5309
1 26.9858 22.063 11.3276
1 27.7795 21.2693 11.3276
1 27.7238 22.0429 10.5294
1 26.9785 21.27 10.5263
1 28.5732 22.063 11.3276
1 29.3669 21.2693 11.3276
1 29.2861 22.0511 10.4965
1 28.5301 21.2567 10.4998
1 30 20.4756 11.3276
1 0.793701 19.6819 11.3276
1 0.821144 20.4807 10.5327
1 0.0452467 19.6841 10.5011
1 1.5874 20.4756 11.3276
1 2.3811 19.6819 11.3276
1 2.41166 20.4827 10.5396
1 1.60058 19.7002 10.5294
1 3.1748 20.4756 11.3276
1 3.9685 19.6819 11.3276
1 3.96724 20.4865 10.5233
1 3.17384 19.6896 10.5325
1 4.7622 20.4756 11.3276
1 5.5559 19.6819 11.3276
1 5.5714 20.4711 10.541
1 4.77817 19.6531 10.5367
1 6.3496 20.4756 11.3276
1 7.1433 19.6819 11.3276
1 7.1403 20.4774 10.5605
1 6.36086 19.6837 10.5325
1 7.93701 20.4756 11.3276
1 8.73071 19.6819 11.3276
1 8.75295 20.4862 10.525
1 7.97705 19.6902 10.5294
1 9.52441 20.4756 11.3276
1 10.3181 19.6819 11.3276
1 10.3211 20.4941 10.5282
1 9.55826 19.6657 10.5448
1 11.1118 20.4756 11.3276
1 11.9055 19.6819 11.3276
1 11.9033 20.4991 10.5341
1 11.1358 19.6971 10.5303
1 12.6992 20.4756 11.3276
1 13.4929 19.6819 11.3276
1 13.4777 20.4744 10.5362
1 12.6922 19.6934 10.5342
1 14.2866 20.4756 11.3276
1 15.0803 19.6819 11.3276
1 15.0798 20.4907 10.533
1 14.3095 19.6903 10.5237
1 15.874 20.4756 11.3276
1 16.6677 19.6819 11.3276
1 16.6701 20.4843 10.5401
1 15.8865 19.6772 10.5433
1 17.4614 20.4756 11.3276
1 18.2551 19.6819 11.3276
1 18.2506 20.4715 10.5545
1 17.4735 19.6899 10.5359
1 19.0488 20.4756 11.3276
1 19.8425 19.6819 11.3276
1 19.8351 20.4733 10.5282
1 19.0537 19.6819 10.5427
1 20.6362 20.4756 11.3276
1 21.4299 19.6819 11.3276
1 21.4136 20.4786 10.5284
1 20.6152 19.6904 10.5362
1 22.2236 20.4756 11.3276
1 23.0173 19.6819 11.3276
1 23.0207 20.4587 10.5465
1 22.2265 19.6881 10.5156
1 23.811 20.4756 11.3276
1 24.6047 19.6819 11.3276
1 24.6071 20.4941 10.5438
1 23.8107 19.6852 10.5604
1 25.3984 20.4756 11.3276
1 26.1921 19.6819 11.3276
1 26.1897 20.5181 10.5483
1 25.3842 19.7089 10.5556
1 26.9858 20.4756 11.3276
1 27.7795 19.6819 11.3276
1 27.7715 20.467 10.528
1 26.9642 19.6796 10.5383
1 28.5732 20.4756 11.3276
1 29.3669 19.6819 11.3276
1 29.3066 20.4762 10.4985
1 28.5512 19.6958 10.5134
1 30 18.8882 11.3276
1 0.793701 18.0945 11.3276
1 0.815496 18.8798 10.5273
1 0.0821108 18.059 10.5178
1 1.5874 18.8882 11.3276
1 2.3811 18.0945 11.3276
1 2.39647 18.8893 10.5319
1 1.59623 18.1177 10.5216
1 3.1748 18.8882 11.3276
1 3.9685 18.0945 11.3276
1 3.97242 18.8729 10.5151
1 3.16567 18.114 10.5213
1 4.7622 18.8882 11.3276
1 5.5559 18.0945 11.3276
1 5.58881 18.8761 10.5441
1 4.77726 18.1173 10.5427
1 6.3496 18.8882 11.3276
1 7.1433 18.0945 11.3276
1 7.13139 18.8723 10.5375
1 6.34415 18.0839 10.5565
1 7.93701 18.8882 11.3276
1 8.73071 18.0945 11.3276
1 8.72701 18.9164 10.5241
1 7.96179 18.1152 10.551
1 9.52441 18.8882 11.3276
1 10.3181 18.0945 11.3276
1 10.3287 18.881 10.5362
1 9.52573 18.1019 10.5297
1 11.1118 18.8882 11.3276
1 11.9055 18.0945 11.3276
1 11.9099 18.8951 10.5129
1 11.1122 18.0834 10.5301
1 12.6992 18.8882 11.3276
1 13.4929 18.0945 11.3276
1 13.4999 18.9013 10.5429
1 12.7272 18.0924 10.5736
1 14.2866 18.8882 11.3276
1 15.0803 18.0945 11.3276
1 15.0746 18.8935 10.5373
1 14.2928 18.0827 10.5282
1 15.874 18.8882 11.3276
1 16.6677 18.0945 11.3276
1 16.6601 18.9118 10.5443
1 15.9053 18.0909 10.5221
1 17.4614 18.8882 11.3276
1 18.2551 18.0945 11.3276
1 18.2482 18.9026 10.5226
1 17.4482 18.1205 10.5562
1 19.0488 18.8882 11.3276
1 19.8425 18.0945 11.3276
1 19.8548 18.8926 10.5427
1 19.0278 18.1151 10.5353
1 20.6362 18.8882 11.3276
1 21.4299 18.0945 11.3276
1 21.4345 18.8985 10.5579
1 20.6417 18.0766 10.5268
1 22.2236 18.8882 11.3276
1 23.0173 18.0945 11.3276
1 23.0164 18.8885 10.5335
1 22.2263 18.1033 10.5347
1 23.811 18.8882 11.3276
1 24.6047 18.0945 11.3276
1 24.6007 18.8822 10.5383
1 23.8212 18.0789 10.553
1 25.3984 18.8882 11.3276
1 26.1921 18.0945 11.3276
1 26.1721 18.8936 10.5343
1 25.3927 18.0789 10.547
1 26.9858 18.8882 11.3276
1 27.7795 18.0945 11.3276
1 27.7682 18.9131 10.507
1 26.9929 18.1004 10.5337
1 28.5732 18.8882 11.3276
1 29.3669 18.0945 11.3276
1 29.2984 18.8791 10.5187
1 28.5263 18.1126 10.5225
1 30 17.3008 11.3276
1 0.793701 16.5071 11.3276
1 0.835178 17.2842 10.5275
1 0.0491873 16.4986 10.4959
1 1.5874 17.3008 11.3276
1 2.3811 16.5071 11.3276
1 2.38941 17.3347 10.5526
1 1.59987 16.5134 10.5488
1 3.1748 17.3008 11.3276
1 3.9685 16.5071 11.3276
1 3.9915 17.3096 10.533
1 3.2097 16.4809 10.5161
1 4.7622 17.3008 11.3276
1 5.5559 16.5071 11.3276
1 5.52913 17.3252 10.5259
1 4.76054 16.5059 10.5449
1 6.3496 17.3008 11.3276
1 7.1433 16.5071 11.3276
1 7.14323 17.3423 10.5817
1 6.33026 16.5315 10.546
1 7.93701 17.3008 11.3276
1 8.73071 16.5071 11.3276
1 8.72471 17.3132 10.5277
1 7.91213 16.4904 10.5538
1 9.52441 17.3008 11.3276
1 10.3181 16.5071 11.3276
1 10.2879 17.3289 10.5419
1 9.5206 16.5071 10.5337
1 11.1118 17.3008 11.3276
1 11.9055 16.5071 11.3276
1 11.9065 17.3151 10.5515
1 11.1018 16.5465 10.5566
1 12.6992 17.3008 11.3276
1 13.4929 16.5071 11.3276
1 13.5038 17.3087 10.5237
1 12.6998 16.5063 10.5394
1 14.2866 17.3008 11.3276
1 15.0803 16.5071 11.3276
1 15.065 17.3025 10.5186
1 14.2912 16.5209 10.5214
1 15.874 17.3008 11.3276
1 16.6677 16.5071 11.3276
1 16.6711 17.3275 10.5307
1 15.8665 16.5021 10.5632
1 17.4614 17.3008 11.3276
1 18.2551 16.5071 11.3276
1 18.2374 17.2978 10.5411
1 17.4553 16.4766 10.523
1 19.0488 17.3008 11.3276
1 19.8425 16.5071 11.3276
1 19.8229 17.3178 10.568
1 19.0392 16.486 10.5295
1 20.6362 17.3008 11.3276
1 21.4299 16.5071 11.3276
1 21.4289 17.2815 10.5376
1 20.6377 16.4913 10.5289
1 22.2236 17.3008 11.3276
1 23.0173 16.5071 11.3276
1 23.0339 17.2983 10.5352
1 22.2389 16.5036 10.5345
1 23.811 17.3008 11.3276
1 24.6047 16.5071 11.3276
1 24.5898 17.293 10.5148
1 23.8113 16.4871 10.5368
1 25.3984 17.3008 11.3276
1 26.1921 16.5071 11.3276
1 26.1948 17.298 10.5524
1 25.354 16.4864 10.5372
1 26.9858 17.3008 11.3276
1 27.7795 16.5071 11.3276
1 27.7667 17.279 10.5176
1 26.986 16.5053 10.5528
1 28.5732 17.3008 11.3276
1 29.3669 16.5071 11.3276
1 29.3062 17.2689 10.5094
1 28.5297 16.5131 10.5553
1 30 15.7134 11.3276
1 0.793701 14.9197 11.3276
1 0.823838 15.7248 10.5243
1 0.0817075 14.9157 10.5128
1 1.5874 15.7134 11.3276
1 2.3811 14.9197 11.3276
1 2.39758 15.7499 10.5275
1 1.61241 14.9211 10.5395
1 3.1748 15.7134 11.3276
1 3.9685 14.9197 11.3276
1 3.98265 15.7155 10.5398
1 3.19324 14.9566 10.5547
1 4.7622 15.7134 11.3276
1 5.5559 14.9197 11.3276
1 5.54747 15.7127 10.5571
1 4.78565 14.9178 10.5438
1 6.3496 15.7134 11.3276
1 7.1433 14.9197 11.3276
1 7.14386 15.7282 10.5278
1 6.35565 14.9231 10.5414
1 7.93701 15.7134 11.3276
1 8.73071 14.9197 11.3276
1 8.71886 15.7054 10.5065
1 7.91587 14.9173 10.5184
1 9.52441 15.7134 11.3276
1 10.3181 14.9197 11.3276
1 10.3334 15.7305 10.5179
1 9.5375 14.8993 10.5495
1 11.1118 15.7134 11.3276
1 11.9055 14.9197 11.3276
1 11.8863 15.699 10.5414
1 11.0833 14.9294 10.5505
1 12.6992 15.7134 11.3276
1 13.4929 14.9197 11.3276
1 13.5009 15.7438 10.5357
1 12.6978 14.9262 10.5704
1 14.2866 15.7134 11.3276
1 15.0803 14.9197 11.3276
1 15.0704 15.7258 10.544
1 14.2886 14.9158 10.5432
1 15.874 15.7134 11.3276
1 16.6677 14.9197 11.3276
1 16.6724 15.7026 10.5455
1 15.8779 14.9522 10.5192
1 17.4614 15.7134 11.3276
1 18.2551 14.9197 11.3276
1 18.2508 15.6994 10.5383
1 17.4903 14.9003 10.5383
1 19.0488 15.7134 11.3276
1 19.8425 14.9197 11.3276
1 19.8545 15.6757 10.5357
1 19.0302 14.9098 10.558
1 20.6362 15.7134 11.3276
1 21.4299 14.9197 11.3276
1 21.4308 15.7123 10.5158
1 20.6254 14.8982 10.5234
1 22.2236 15.7134 11.3276
1 23.0173 14.9197 11.3276
1 22.9919 15.7 10.5398
1 22.2236 14.9529 10.5394
1 23.811 15.7134 11.3276
1 24.6047 14.9197 11.3276
1 24.5848 15.7238 10.5742
1 23.7675 14.9149 10.5291
1 25.3984 15.7134 11.3276
1 26.1921 14.9197 11.3276
1 26.1633 15.7048 10.5356
1 25.3935 14.9058 10.548
1 26.9858 15.7134 11.3276
1 27.7795 14.9197 11.3276
1 27.7618 15.6996 10.566
1 26.9657 14.908 10.5489
1 28.5732 15.7134 11.3276
1 29.3669 14.9197 11.3276
1 29.3002 15.6865 10.5087
1 28.5688 14.9054 10.5425
1 30 14.126 11.3276
1 0.793701 13.3323 11.3276
1 0.816816 14.1182 10.5281
1 0.0231283 13.3228 10.4784
1 1.5874 14.126 11.3276
1 2.3811 13.3323 11.3276
1 2.39514 14.1201 10.5273
1 1.60372 13.3377 10.543
1 3.1748 14.126 11.3276
1 3.9685 13.3323 11.3276
1 3.98331 14.1233 10.5179
1 3.20323 13.3262 10.5217
1 4.7622 14.126 11.3276
1 5.5559 13.3323 11.3276
1 5.56823 14.1037 10.5241
1 4.78796 13.3603 10.5394
1 6.3496 14.126 11.3276
1 7.1433 13.3323 11.3276
1 7.13585 14.1032 10.5273
1 6.34596 13.3438 10.5536
1 7.93701 14.126 11.3276
1 8.73071 13.3323 11.3276
1 8.75346 14.1359 10.5376
1 7.9225 13.3336 10.5189
1 9.52441 14.126 11.3276
1 10.3181 13.3323 11.3276
1 10.3549 14.1317 10.5376
1 9.51145 13.3294 10.5091
1 11.1118 14.126 11.3276
1 11.9055 13.3323 11.3276
1 11.9124 14.1153 10.5612
1 11.1128 13.3212 10.5484
1 12.6992 14.126 11.3276
1 13.4929 13.3323 11.3276
1 13.5124 14.1297 10.5372
1 12.7301 13.3532 10.5035
1 14.2866 14.126 11.3276
1 15.0803 13.3323 11.3276
1 15.0788 14.1628 10.504
1 14.3085 13.3258 10.5086
1 15.874 14.126 11.3276
1 16.6677 13.3323 11.3276
1 16.6623 14.1182 10.5454
1 15.8797 13.3388 10.5441
1 17.4614 14.126 11.3276
1 18.2551 13.3323 11.3276
1 18.2545 14.093 10.5537
1 17.4552 13.3247 10.5524
1 19.0488 14.126 11.3276
1 19.8425 13.3323 11.3276
1 19.8454 14.1417 10.5579
1 19.0837 13.3422 10.5467
1 20.6362 14.126 11.3276
1 21.4299 13.3323 11.3276
1 21.4332 14.1379 10.5394
1 20.6164 13.3159 10.522
1 22.2236 14.126 11.3276
1 23.0173 13.3323 11.3276
1 23.0135 14.1237 10.5421
1 22.2229 13.335 10.5432
1 23.811 14.126 11.3276
1 24.6047 13.3323 11.3276
1 24.5794 14.1089 10.5332
1 23.7922 13.3335 10.5414
1 25.3984 14.126 11.3276
1 26.1921 13.3323 11.3276
1 26.1932 14.1053 10.5508
1 25.3748 13.3352 10.5324
1 26.9858 14.126 11.3276
1 27.7795 13.3323 11.3276
1 27.7964 14.1062 10.5339
1 27.0106 13.3258 10.5358
1 28.5732 14.126 11.3276
1 29.3669 13.3323 11.3276
1 29.3005 14.119 10.5277
1 28.556 13.3055 10.5102
1 30 12.5386 11.3276
1 0.793701 11.7449 11.3276
1 0.826847 12.5493 10.5402
1 0.0975566 11.7496 10.5098
1 1.5874 12.5386 11.3276
1 2.3811 11.7449 11.3276
1 2.39471 12.5303 10.5316
1 1.57629 11.7293 10.5524
1 3.1748 12.5386 11.3276
1 3.9685 11.7449 11.3276
1 3.97404 12.5309 10.5447
1 3.16922 11.7272 10.5356
1 4.7622 12.5386 11.3276
1 5.5559 11.7449 11.3276
1 5.55857 12.5354 10.5218
1 4.78528 11.7399 10.5392
1 6.3496 12.5386 11.3276
1 7.1433 11.7449 11.3276
1 7.12628 12.5444 10.5231
1 6.3651 11.7445 10.525
1 7.93701 12.5386 11.3276
1 8.73071 11.7449 11.3276
1 8.71046 12.5298 10.5237
1 7.94587 11.7408 10.5264
1 9.52441 12.5386 11.3276
1 10.3181 11.7449 11.3276
1 10.3017 12.5458 10.5149
1 9.51915 11.7482 10.5363
1 11.1118 12.5386 11.3276
1 11.9055 11.7449 11.3276
1 11.9251 12.5302 10.5266
1 11.0879 11.7762 10.5023
1 12.6992 12.5386 11.3276
1 13.4929 11.7449 11.3276
1 13.5034 12.5282 10.5177
1 12.6953 11.7345 10.5395
1 14.2866 12.5386 11.3276
1 15.0803 11.7449 11.3276
1 15.0973 12.5372 10.5203
1 14.2827 11.7463 10.5204
1 15.874 12.5386 11.3276
1 16.6677 11.7449 11.3276
1 16.6652 12.5477 10.5302
1 15.8761 11.7196 10.5239
1 17.4614 12.5386 11.3276
1 18.2551 11.7449 11.3276
1 18.2564 12.5322 10.5308
1 17.4451 11.7255 10.5179
1 19.0488 12.5386 11.3276
1 19.8425 11.7449 11.3276
1 19.8432 12.5381 10.4989
1 19.0499 11.7579 10.5431
1 20.6362 12.5386 11.3276
1 21.4299 11.7449 11.3276
1 21.4298 12.5427 10.5245
1 20.623 11.7487 10.5306
1 22.2236 12.5386 11.3276
1 23.0173 11.7449 11.3276
1 23.0119 12.5424 10.545
1 22.2239 11.7327 10.5381
1 23.811 12.5386 11.3276
1 24.6047 11.7449 11.3276
1 24.5842 12.542 10.5372
1 23.7936 11.7415 10.5329
1 25.3984 12.5386 11.3276
1 26.1921 11.7449 11.3276
1 26.2006 12.5411 10.5383
1 25.3943 11.7382 10.5426
1 26.9858 12.5386 11.3276
1 27.7795 11.7449 11.3276
1 27.7489 12.5353 10.5485
1 26.9694 11.7247 10.5065
1 28.5732 12.5386 11.3276
1 29.3669 11.7449 11.3276
1 29.2881 12.5011 10.5049
1 28.5266 11.7605 10.5303
1 30 10.9512 11.3276
1 0.793701 10.1575 11.3276
1 0.816287 10.9397 10.5452
1 0.0707594 10.1361 10.4935
1 1.5874 10.9512 11.3276
1 2.3811 10.1575 11.3276
1 2.36336 10.926 10.5356
1 1.59921 10.1238 10.518
1 3.1748 10.9512 11.3276
1 3.9685 10.1575 11.3276
1 4.00999 10.952 10.5437
1 3.15794 10.1654 10.5291
1 4.7622 10.9512 11.3276
1 5.5559 10.1575 11.3276
1 5.54745 10.9421 10.5469
1 4.75958 10.161 10.5366
1 6.3496 10.9512 11.3276
1 7.1433 10.1575 11.3276
1 7.18015 10.9299 10.5427
1 6.3722 10.1754 10.5237
1 7.93701 10.9512 11.3276
1 8.73071 10.1575 11.3276
1 8.73016 10.9439 10.5095
1 7.96065 10.1514 10.5556
1 9.52441 10.9512 11.3276
1 10.3181 10.1575 11.3276
1 10.3197 10.9739 10.544
1 9.50954 10.1513 10.5233
1 11.1118 10.9512 11.3276
1 11.9055 10.1575 11.3276
1 11.8784 10.973 10.5324
1 11.1111 10.1376 10.525
1 12.6992 10.9512 11.3276
1 13.4929 10.1575 11.3276
1 13.4926 10.9326 10.5219
1 12.6984 10.1585 10.5283
1 14.2866 10.9512 11.3276
1 15.0803 10.1575 11.3276
1 15.0861 10.9533 10.5244
1 14.3258 10.1688 10.5485
1 15.874 10.9512 11.3276
1 16.6677 10.1575 11.3276
1 16.6595 10.9294 10.5493
1 15.8652 10.142 10.5323
1 17.4614 10.9512 11.3276
1 18.2551 10.1575 11.3276
1 18.2805 10.9341 10.5463
1 17.4874 10.14 10.5461
1 19.0488 10.9512 11.3276
1 19.8425 10.1575 11.3276
1 19.8509 10.9527 10.5457
1 19.0463 10.1465 10.5587
1 20.6362 10.9512 11.3276
1 21.4299 10.1575 11.3276
1 21.4323 10.9711 10.5201
1 20.6392 10.176 10.5543
1 22.2236 10.9512 11.3276
1 23.0173 10.1575 11.3276
1 23.006 10.9333 10.5301
1 22.2183 10.1514 10.5322
1 23.811 10.9512 11.3276
1 24.6047 10.1575 11.3276
1 24.5943 10.9553 10.5186
1 23.7957 10.1788 10.5417
1 25.3984 10.9512 11.3276
1 26.1921 10.1575 11.3276
1 26.1565 10.9626 10.5329
1 25.3685 10.1649 10.5439
1 26.9858 10.9512 11.3276
1 27.7795 10.1575 11.3276
1 27.7508 10.9434 10.5383
1 26.9426 10.1369 10.5409
1 28.5732 10.9512 11.3276
1 29.3669 10.1575 11.3276
1 29.3023 10.9632 10.4959
1 28.5521 10.1608 10.5354
1 30 9.36379 11.3276
1 0.793701 8.57009 11.3276
1 0.821638 9.35009 10.4992
1 0.0780138 8.56561 10.5175
1 1.5874 9.36379 11.3276
1 2.3811 8.57009 11.3276
1 2.39767 9.38386 10.5208
1 1.62241 8.59166 10.5136
1 3.1748 9.36379 11.3276
1 3.9685 8.57009 11.3276
1 3.94189 9.35955 10.5217
1 3.1737 8.58524 10.5393
1 4.7622 9.36379 11.3276
1 5.5559 8.57009 11.3276
1 5.56123 9.39592 10.5395
1 4.76602 8.56921 10.5237
1 6.3496 9.36379 11.3276
1 7.1433 8.57009 11.3276
1 7.13973 9.35224 10.5165
1 6.34526 8.5977 10.5013
1 7.93701 9.36379 11.3276
1 8.73071 8.57009 11.3276
1 8.74744 9.36617 10.5239
1 7.93484 8.56482 10.543
1 9.52441 9.36379 11.3276
1 10.3181 8.57009 11.3276
1 10.3158 9.3533 10.5488
1 9.52962 8.57069 10.5344
1 11.1118 9.36379 11.3276
1 11.9055 8.57009 11.3276
1 11.9032 9.36784 10.5465
1 11.112 8.55668 10.5236
1 12.6992 9.36379 11.3276
1 13.4929 8.57009 11.3276
1 13.5007 9.3637 10.5277
1 12.6801 8.55899 10.5274
1 14.2866 9.36379 11.3276
1 15.0803 8.57009 11.3276
1 15.0802 9.35233 10.5275
1 14.2811 8.55691 10.5468
1 15.874 9.36379 11.3276
1 16.6677 8.57009 11.3276
1 16.6483 9.33853 10.5212
1 15.8609 8.56166 10.5633
1 17.4614 9.36379 11.3276
1 18.2551 8.57009 11.3276
1 18.2646 9.3549 10.534
1 17.4583 8.5646 10.5467
1 19.0488 9.36379 11.3276
1 19.8425 8.57009 11.3276
1 19.8493 9.36191 10.5557
1 19.0687 8.5728 10.5257
1 20.6362 9.36379 11.3276
1 21.4299 8.57009 11.3276
1 21.453 9.36314 10.5376
1 20.6395 8.58042 10.507
1 22.2236 9.36379 11.3276
1 23.0173 8.57009 11.3276
1 23.0112 9.36881 10.5218
1 22.2377 8.58416 10.5256
1 23.811 9.36379 11.3276
1 24.6047 8.57009 11.3276
1 24.5818 9.3755 10.518
1 23.7714 8.60568 10.5154
1 25.3984 9.36379 11.3276
1 26.1921 8.57009 11.3276
1 26.165 9.35811 10.5427
1 25.3661 8.57235 10.5465
1 26.9858 9.36379 11.3276
1 27.7795 8.57009 11.3276
1 27.7727 9.36503 10.5353
1 26.9676 8.56751 10.5495
1 28.5732 9.36379 11.3276
1 29.3669 8.57009 11.3276
1 29.2869 9.37149 10.5255
1 28.5344 8.57202 10.5176
1 30 7.77639 11.3276
1 0.793701 6.98268 11.3276
1 0.8178 7.78101 10.5499
1 0.0930223 6.98832 10.516
1 1.5874 7.77639 11.3276
1 2.3811 6.98268 11.3276
1 2.40277 7.80082 10.5297
1 1.6274 6.97415 10.5143
1 3.1748 7.77639 11.3276
1 3.9685 6.98268 11.3276
1 3.97617 7.7952 10.5318
1 3.20317 6.97345 10.5072
1 4.7622 7.77639 11.3276
1 5.5559 6.98268 11.3276
1 5.54175 7.76943 10.5469
1 4.73211 6.96637 10.5075
1 6.3496 7.77639 11.3276
1 7.1433 6.98268 11.3276
1 7.1304 7.76183 10.5151
1 6.34816 6.99508 10.5373
1 7.93701 7.77639 11.3276
1 8.73071 6.98268 11.3276
1 8.75619 7.77541 10.5434
1 7.9835 6.96804 10.5403
1 9.52441 7.77639 11.3276
1 10.3181 6.98268 11.3276
1 10.3107 7.77613 10.5182
1 9.52096 6.97261 10.5273
1 11.1118 7.77639 11.3276
1 11.9055 6.98268 11.3276
1 11.8949 7.79033 10.5307
1 11.0981 6.99971 10.5345
1 12.6992 7.77639 11.3276
1 13.4929 6.98268 11.3276
1 13.5047 7.78068 10.5208
1 12.6997 7.02867 10.5333
1 14.2866 7.77639 11.3276
1 15.0803 6.98268 11.3276
1 15.0807 7.78308 10.5145
1 14.285 6.97107 10.5371
1 15.874 7.77639 11.3276
1 16.6677 6.98268 11.3276
1 16.6283 7.78147 10.5581
1 15.8576 6.97657 10.5139
1 17.4614 7.77639 11.3276
1 18.2551 6.98268 11.3276
1 18.2672 7.76395 10.5264
1 17.4464 7.00525 10.5403
1 19.0488 7.77639 11.3276
1 19.8425 6.98268 11.3276
1 19.8747 7.78806 10.5454
1 19.062 6.98688 10.5497
1 20.6362 7.77639 11.3276
1 21.4299 6.98268 11.3276
1 21.4483 7.77938 10.5303
1 20.6461 7.00859 10.5448
1 22.2236 7.77639 11.3276
1 23.0173 6.98268 11.3276
1 23.0071 7.79669 10.5238
1 22.2225 7.01478 10.5089
1 23.811 7.77639 11.3276
1 24.6047 6.98268 11.3276
1 24.5755 7.78459 10.524
1 23.7806 6.9574 10.5186
1 25.3984 7.77639 11.3276
1 26.1921 6.98268 11.3276
1 26.1471 7.73839 10.5156
1 25.3947 6.97933 10.5232
1 26.9858 7.77639 11.3276
1 27.7795 6.98268 11.3276
1 27.7496 7.79404 10.5405
1 26.989 6.97245 10.5358
1 28.5732 7.77639 11.3276
1 29.3669 6.98268 11.3276
1 29.3074 7.77505 10.5147
1 28.5431 6.97554 10.5235
1 30 6.18898 11.3276
1 0.793701 5.39528 11.3276
1 0.841964 6.17068 10.5187
1 0.0695095 5.38625 10.4979
1 1.5874 6.18898 11.3276
1 2.3811 5.39528 11.3276
1 2.4113 6.16343 10.5219
1 1.61026 5.36477 10.5405
1 3.1748 6.18898 11.3276
1 3.9685 5.39528 11.3276
1 3.99922 6.19216 10.4916
1 3.1845 5.3947 10.5303
1 4.7622 6.18898 11.3276
1 5.5559 5.39528 11.3276
1 5.53748 6.20184 10.5412
1 4.77129 5.3929 10.5251
1 6.3496 6.18898 11.3276
1 7.1433 5.39528 11.3276
1 7.1603 6.1942 10.5416
1 6.35126 5.38402 10.5478
1 7.93701 6.18898 11.3276
1 8.73071 5.39528 11.3276
1 8.74109 6.16803 10.5248
1 7.93679 5.40352 10.5614