12976
Atoms. Timestep: 4000000
1 7.5 7.10543e-15 15.2504
1 8.2937 29.2063 15.2504
1 8.31113 29.9191 14.4271
1 7.549 29.163 14.4191
1 9.0874 7.10543e-15 15.2504
1 9.8811 29.2063 15.2504
1 9.87811 29.9209 14.4474
1 9.10347 29.191 14.4362
1 10.6748 7.10543e-15 15.2504
1 11.4685 29.2063 15.2504
1 11.4717 29.9328 14.4475
1 10.705 29.1784 14.4484
1 12.2622 7.10543e-15 15.2504
1 13.0559 29.2063 15.2504
1 13.0421 29.9287 14.4373
1 12.2756 29.1968 14.4329
1 13.8496 7.10543e-15 15.2504
1 14.6433 29.2063 15.2504
1 14.6362 29.9175 14.429
1 13.8551 29.1528 14.4337
1 15.437 7.10543e-15 15.2504
1 16.2307 29.2063 15.2504
1 16.2091 29.9468 14.4283
1 15.4536 29.1424 14.4587
1 17.0244 7.10543e-15 15.2504
1 17.8181 29.2063 15.2504
1 17.8226 29.9341 14.4501
1 17.0191 29.1735 14.4514
1 18.6118 7.10543e-15 15.2504
1 19.4055 29.2063 15.2504
1 19.4116 29.9363 14.4274
1 18.6246 29.1727 14.4498
1 20.1992 7.10543e-15 15.2504
1 20.9929 29.2063 15.2504
1 20.9889 29.9361 14.4273
1 20.2209 29.1676 14.4505
1 21.7866 7.10543e-15 15.2504
1 22.5803 29.2063 15.2504
1 22.5655 29.9065 14.4233
1 21.7711 29.1769 14.4517
1 23.374 7.10543e-15 15.2504
1 24.1677 29.2063 15.2504
1 24.1512 29.9224 14.3976
1 23.3572 29.1522 14.4257
1 24.9614 7.10543e-15 15.2504
1 25.7551 29.2063 15.2504
1 25.7563 29.9441 14.4151
1 24.9548 29.1721 14.4692
1 26.5488 7.10543e-15 15.2504
1 27.3425 29.2063 15.2504
1 27.339 29.8991 14.4056
1 26.5255 29.1552 14.4486
1 28.1362 7.10543e-15 15.2504
1 28.9299 29.2063 15.2504
1 28.925 29.9354 14.4557
1 28.1319 29.1954 14.4457
1 29.7236 7.10543e-15 15.2504
1 0.517315 29.2063 15.2504
1 0.493395 29.9367 14.4497
1 29.7146 29.1976 14.4324
1 1.31102 7.10543e-15 15.2504
1 2.10472 29.2063 15.2504
1 2.08964 29.906 14.4488
1 1.29784 29.1668 14.468
1 2.89842 7.10543e-15 15.2504
1 3.69212 29.2063 15.2504
1 3.70548 29.9592 14.4142
1 2.905 29.2001 14.4657
1 4.48582 7.10543e-15 15.2504
1 5.27952 29.2063 15.2504
1 5.26129 29.9512 14.4202
1 4.46385 29.1567 14.4538
1 6.07322 7.10543e-15 15.2504
1 6.86692 29.2063 15.2504
1 6.79762 29.943 14.4174
1 6.04444 29.1753 14.4629
1 7.5 28.4126 15.2504
1 8.2937 27.6189 15.2504
1 8.32321 28.387 14.447
1 7.58787 27.5904 14.4418
1 9.0874 28.4126 15.2504
1 9.8811 27.6189 15.2504
1 9.89588 28.4209 14.4534
1 9.09362 27.6042 14.4364
1 10.6748 28.4126 15.2504
1 11.4685 27.6189 15.2504
1 11.4641 28.3998 14.4453
1 10.686 27.5875 14.4602
1 12.2622 28.4126 15.2504
1 13.0559 27.6189 15.2504
1 13.0466 28.3921 14.4459
1 12.258 27.5985 14.4642
1 13.8496 28.4126 15.2504
1 14.6433 27.6189 15.2504
1 14.646 28.3887 14.4522
1 13.8471 27.5985 14.4535
1 15.437 28.4126 15.2504
1 16.2307 27.6189 15.2504
1 16.2362 28.3872 14.4583
1 15.4363 27.5901 14.4272
1 17.0244 28.4126 15.2504
1 17.8181 27.6189 15.2504
1 17.8313 28.4253 14.4518
1 17.0288 27.6113 14.4522
1 18.6118 28.4126 15.2504
1 19.4055 27.6189 15.2504
1 19.4423 28.414 14.4471
1 18.5794 27.6122 14.458
1 20.1992 28.4126 15.2504
1 20.9929 27.6189 15.2504
1 21.0021 28.3863 14.4385
1 20.2038 27.59 14.4633
1 21.7866 28.4126 15.2504
1 22.5803 27.6189 15.2504
1 22.5715 28.3894 14.4481
1 21.788 27.6095 14.4416
1 23.374 28.4126 15.2504
1 24.1677 27.6189 15.2504
1 24.1515 28.3629 14.4824
1 23.37 27.6013 14.4274
1 24.9614 28.4126 15.2504
1 25.7551 27.6189 15.2504
1 25.7548 28.3868 14.4603
1 24.9561 27.6231 14.4487
1 26.5488 28.4126 15.2504
1 27.3425 27.6189 15.2504
1 27.3229 28.387 14.4794
1 26.5364 27.5898 14.4579
1 28.1362 28.4126 15.2504
1 28.9299 27.6189 15.2504
1 28.932 28.4371 14.4447
1 28.1446 27.5902 14.4548
1 29.7236 28.4126 15.2504
1 0.517315 27.6189 15.2504
1 0.502379 28.4063 14.4413
1 29.7134 27.6221 14.4454
1 1.31102 28.4126 15.2504
1 2.10472 27.6189 15.2504
1 2.11156 28.3932 14.4543
1 1.2832 27.6217 14.4579
1 2.89842 28.4126 15.2504
1 3.69212 27.6189 15.2504
1 3.69724 28.3932 14.4612
1 2.88292 27.6007 14.469
1 4.48582 28.4126 15.2504
1 5.27952 27.6189 15.2504
1 5.27264 28.3786 14.4707
1 4.49937 27.5997 14.4386
1 6.07322 28.4126 15.2504
1 6.86692 27.6189 15.2504
1 6.79273 28.4071 14.43
1 6.05317 27.6122 14.4377
1 7.5 26.8252 15.2504
1 8.2937 26.0315 15.2504
1 8.31213 26.7989 14.4696
1 7.56821 26.0255 14.4233
1 9.0874 26.8252 15.2504
1 9.8811 26.0315 15.2504
1 9.87154 26.8012 14.461
1 9.08665 26.0187 14.446
1 10.6748 26.8252 15.2504
1 11.4685 26.0315 15.2504
1 11.4515 26.794 14.4859
1 10.6705 26.0025 14.4495
1 12.2622 26.8252 15.2504
1 13.0559 26.0315 15.2504
1 13.0394 26.8324 14.4341
1 12.2616 26.0269 14.4682
1 13.8496 26.8252 15.2504
1 14.6433 26.0315 15.2504
1 14.6372 26.8209 14.4598
1 13.8542 26.0395 14.4574
1 15.437 26.8252 15.2504
1 16.2307 26.0315 15.2504
1 16.2316 26.8002 14.459
1 15.4339 26.0131 14.4466
1 17.0244 26.8252 15.2504
1 17.8181 26.0315 15.2504
1 17.7904 26.8208 14.4459
1 17.0158 25.991 14.4544
1 18.6118 26.8252 15.2504
1 19.4055 26.0315 15.2504
1 19.4013 26.8168 14.4616
1 18.5807 26.0101 14.4485
1 20.1992 26.8252 15.2504
1 20.9929 26.0315 15.2504
1 20.9902 26.799 14.4547
1 20.1791 26.0361 14.4766
1 21.7866 26.8252 15.2504
1 22.5803 26.0315 15.2504
1 22.5736 26.8281 14.4533
1 21.781 26.0192 14.4821
1 23.374 26.8252 15.2504
1 24.1677 26.0315 15.2504
1 24.1575 26.8053 14.457
1 23.3661 26.0406 14.449
1 24.9614 26.8252 15.2504
1 25.7551 26.0315 15.2504
1 25.7539 26.7925 14.5023
1 24.9655 26.0023 14.4754
1 26.5488 26.8252 15.2504
1 27.3425 26.0315 15.2504
1 27.3574 26.8345 14.4689
1 26.5781 26.0193 14.4653
1 28.1362 26.8252 15.2504
1 28.9299 26.0315 15.2504
1 28.9243 26.8133 14.458
1 28.1628 26.0297 14.4653
1 29.7236 26.8252 15.2504
1 0.517315 26.0315 15.2504
1 0.483562 26.8396 14.4651
1 29.7427 26.0471 14.4536
1 1.31102 26.8252 15.2504
1 2.10472 26.0315 15.2504
1 2.07498 26.8313 14.4609
1 1.28686 26.0466 14.4573
1 2.89842 26.8252 15.2504
1 3.69212 26.0315 15.2504
1 3.66582 26.8385 14.4377
1 2.87852 26.0413 14.4404
1 4.48582 26.8252 15.2504
1 5.27952 26.0315 15.2504
1 5.25521 26.8104 14.4452
1 4.46761 26.0496 14.447
1 6.07322 26.8252 15.2504
1 6.86692 26.0315 15.2504
1 6.80617 26.8217 14.44
1 6.06722 26.0446 14.4746
1 7.5 25.2378 15.2504
1 8.2937 24.4441 15.2504
1 8.32544 25.2419 14.4586
1 7.56225 24.4404 14.4175
1 9.0874 25.2378 15.2504
1 9.8811 24.4441 15.2504
1 9.90809 25.2401 14.4455
1 9.0995 24.4316 14.462
1 10.6748 25.2378 15.2504
1 11.4685 24.4441 15.2504
1 11.4676 25.2139 14.4539
1 10.668 24.439 14.4405
1 12.2622 25.2378 15.2504
1 13.0559 24.4441 15.2504
1 13.0745 25.2126 14.4592
1 12.2888 24.4202 14.4369
1 13.8496 25.2378 15.2504
1 14.6433 24.4441 15.2504
1 14.6444 25.2502 14.4503
1 13.8636 24.4395 14.4608
1 15.437 25.2378 15.2504
1 16.2307 24.4441 15.2504
1 16.1848 25.2244 14.4534
1 15.4129 24.4304 14.4707
1 17.0244 25.2378 15.2504
1 17.8181 24.4441 15.2504
1 17.8337 25.223 14.453
1 17.0298 24.4494 14.4394
1 18.6118 25.2378 15.2504
1 19.4055 24.4441 15.2504
1 19.3967 25.2028 14.4407
1 18.5876 24.4248 14.4361
1 20.1992 25.2378 15.2504
1 20.9929 24.4441 15.2504
1 20.9901 25.2171 14.4873
1 20.1906 24.4079 14.4657
1 21.7866 25.2378 15.2504
1 22.5803 24.4441 15.2504
1 22.5782 25.2277 14.4576
1 21.8097 24.4221 14.4517
1 23.374 25.2378 15.2504
1 24.1677 24.4441 15.2504
1 24.1607 25.2381 14.464
1 23.3711 24.4608 14.4457
1 24.9614 25.2378 15.2504
1 25.7551 24.4441 15.2504
1 25.7912 25.2256 14.4571
1 24.9509 24.4378 14.4664
1 26.5488 25.2378 15.2504
1 27.3425 24.4441 15.2504
1 27.3645 25.2234 14.4371
1 26.5746 24.4139 14.4457
1 28.1362 25.2378 15.2504
1 28.9299 24.4441 15.2504
1 28.9316 25.2405 14.45
1 28.1534 24.4346 14.471
1 29.7236 25.2378 15.2504
1 0.517315 24.4441 15.2504
1 0.491951 25.2652 14.4686
1 29.7362 24.4413 14.4615
1 1.31102 25.2378 15.2504
1 2.10472 24.4441 15.2504
1 2.09223 25.2681 14.4708
1 1.3239 24.4573 14.4518
1 2.89842 25.2378 15.2504
1 3.69212 24.4441 15.2504
1 3.70055 25.242 14.4727
1 2.88418 24.4618 14.4602
1 4.48582 25.2378 15.2504
1 5.27952 24.4441 15.2504
1 5.27552 25.2376 14.4519
1 4.46757 24.4431 14.4529
1 6.07322 25.2378 15.2504
1 6.86692 24.4441 15.2504
1 6.81181 25.2535 14.411
1 6.0425 24.4679 14.4485
1 7.5 23.6504 15.2504
1 8.2937 22.8567 15.2504
1 8.29904 23.6538 14.4554
1 7.55617 22.8797 14.4307
1 9.0874 23.6504 15.2504
1 9.8811 22.8567 15.2504
1 9.90528 23.6424 14.4342
1 9.12512 22.8669 14.4607
1 10.6748 23.6504 15.2504
1 11.4685 22.8567 15.2504
1 11.4764 23.661 14.4654
1 10.7117 22.8522 14.4592
1 12.2622 23.6504 15.2504
1 13.0559 22.8567 15.2504
1 13.0557 23.6687 14.4586
1 12.3018 22.8598 14.4493
1 13.8496 23.6504 15.2504
1 14.6433 22.8567 15.2504
1 14.6377 23.6301 14.4811
1 13.8329 22.8721 14.4683
1 15.437 23.6504 15.2504
1 16.2307 22.8567 15.2504
1 16.2011 23.6587 14.4561
1 15.4648 22.8351 14.4522
1 17.0244 23.6504 15.2504
1 17.8181 22.8567 15.2504
1 17.8175 23.6322 14.4761
1 17.0065 22.858 14.445
1 18.6118 23.6504 15.2504
1 19.4055 22.8567 15.2504
1 19.397 23.6609 14.4236
1 18.5805 22.8533 14.4904
1 20.1992 23.6504 15.2504
1 20.9929 22.8567 15.2504
1 21.0161 23.6292 14.4619
1 20.2014 22.8534 14.4687
1 21.7866 23.6504 15.2504
1 22.5803 22.8567 15.2504
1 22.5665 23.6415 14.4832
1 21.7694 22.8329 14.463
1 23.374 23.6504 15.2504
1 24.1677 22.8567 15.2504
1 24.156 23.6368 14.4351
1 23.3991 22.8187 14.4545
1 24.9614 23.6504 15.2504
1 25.7551 22.8567 15.2504
1 25.7648 23.6569 14.4528
1 24.9586 22.8574 14.4875
1 26.5488 23.6504 15.2504
1 27.3425 22.8567 15.2504
1 27.3568 23.654 14.4646
1 26.5609 22.8511 14.4533
1 28.1362 23.6504 15.2504
1 28.9299 22.8567 15.2504
1 28.9328 23.6814 14.4709
1 28.1625 22.8606 14.4426
1 29.7236 23.6504 15.2504
1 0.517315 22.8567 15.2504
1 0.509 23.6558 14.4591
1 29.7061 22.8482 14.4464
1 1.31102 23.6504 15.2504
1 2.10472 22.8567 15.2504
1 2.09967 23.6592 14.4429
1 1.30432 22.8529 14.4343
1 2.89842 23.6504 15.2504
1 3.69212 22.8567 15.2504
1 3.70693 23.6577 14.46
1 2.88 22.8508 14.4609
1 4.48582 23.6504 15.2504
1 5.27952 22.8567 15.2504
1 5.25738 23.6412 14.4359
1 4.4909 22.8532 14.4689
1 6.07322 23.6504 15.2504
1 6.86692 22.8567 15.2504
1 6.79312 23.6629 14.4312
1 6.06166 22.853 14.4552
1 7.5 22.063 15.2504
1 8.2937 21.2693 15.2504
1 8.30478 22.0763 14.4369
1 7.60021 21.2766 14.4366
1 9.0874 22.063 15.2504
1 9.8811 21.2693 15.2504
1 9.87799 22.0614 14.4627
1 9.08026 21.2508 14.4581
1 10.6748 22.063 15.2504
1 11.4685 21.2693 15.2504
1 11.4897 22.0427 14.4544
1 10.6929 21.274 14.4823
1 12.2622 22.063 15.2504
1 13.0559 21.2693 15.2504
1 13.0616 22.0598 14.4532
1 12.2814 21.2562 14.4754
1 13.8496 22.063 15.2504
1 14.6433 21.2693 15.2504
1 14.6609 22.0517 14.4652
1 13.8579 21.2767 14.4661
1 15.437 22.063 15.2504
1 16.2307 21.2693 15.2504
1 16.2002 22.0435 14.4547
1 15.4266 21.2273 14.4685
1 17.0244 22.063 15.2504
1 17.8181 21.2693 15.2504
1 17.8153 22.0767 14.4412
1 17.0209 21.2554 14.4623
1 18.6118 22.063 15.2504
1 19.4055 21.2693 15.2504
1 19.3997 22.0667 14.4861
1 18.623 21.2531 14.4725
1 20.1992 22.063 15.2504
1 20.9929 21.2693 15.2504
1 20.9879 22.0664 14.4362
1 20.201 21.2932 14.4373
1 21.7866 22.063 15.2504
1 22.5803 21.2693 15.2504
1 22.5729 22.0339 14.4599
1 21.7545 21.2784 14.4625
1 23.374 22.063 15.2504
1 24.1677 21.2693 15.2504
1 24.1692 22.0509 14.4513
1 23.4057 21.2899 14.4739
1 24.9614 22.063 15.2504
1 25.7551 21.2693 15.2504
1 25.7732 22.0746 14.4683
1 24.9619 21.262 14.4693
1 26.5488 22.063 15.2504
1 27.3425 21.2693 15.2504
1 27.3433 22.084 14.4521
1 26.5577 21.278 14.4579
1 28.1362 22.063 15.2504
1 28.9299 21.2693 15.2504
1 28.9322 22.0781 14.4833
1 28.1387 21.27 14.4539
1 29.7236 22.063 15.2504
1 0.517315 21.2693 15.2504
1 0.510486 22.0646 14.4605
1 29.698 21.2801 14.4476
1 1.31102 22.063 15.2504
1 2.10472 21.2693 15.2504
1 2.11131 22.0528 14.4394
1 1.29205 21.2756 14.4588
1 2.89842 22.063 15.2504
1 3.69212 21.2693 15.2504
1 3.66839 22.0664 14.4523
1 2.88313 21.2675 14.4481
1 4.48582 22.063 15.2504
1 5.27952 21.2693 15.2504
1 5.27411 22.063 14.4712
1 4.47066 21.2573 14.4537
1 6.07322 22.063 15.2504
1 6.86692 21.2693 15.2504
1 6.82848 22.0748 14.4404
1 6.04541 21.2722 14.4698
1 7.5 20.4756 15.2504
1 8.2937 19.6819 15.2504
1 8.32872 20.468 14.4342
1 7.56059 19.6875 14.447
1 9.0874 20.4756 15.2504
1 9.8811 19.6819 15.2504
1 9.88464 20.4942 14.4517
1 9.12629 19.6916 14.443
1 10.6748 20.4756 15.2504
1 11.4685 19.6819 15.2504
1 11.4951 20.4712 14.437
1 10.6721 19.6734 14.4855
1 12.2622 20.4756 15.2504
1 13.0559 19.6819 15.2504
1 13.0617 20.4618 14.4765
1 12.2681 19.6607 14.453
1 13.8496 20.4756 15.2504
1 14.6433 19.6819 15.2504
1 14.6346 20.4708 14.4667
1 13.8628 19.6901 14.4457
1 15.437 20.4756 15.2504
1 16.2307 19.6819 15.2504
1 16.2171 20.4714 14.4659
1 15.4193 19.6816 14.4457
1 17.0244 20.4756 15.2504
1 17.8181 19.6819 15.2504
1 17.8217 20.4509 14.4572
1 17.0206 19.6788 14.4546
1 18.6118 20.4756 15.2504
1 19.4055 19.6819 15.2504
1 19.4258 20.4786 14.441
1 18.6085 19.6831 14.4755
1 20.1992 20.4756 15.2504
1 20.9929 19.6819 15.2504
1 21.0046 20.4771 14.4745
1 20.1876 19.7081 14.458
1 21.7866 20.4756 15.2504
1 22.5803 19.6819 15.2504
1 22.5793 20.4749 14.4678
1 21.7613 19.6835 14.4621
1 23.374 20.4756 15.2504
1 24.1677 19.6819 15.2504
1 24.1847 20.4841 14.4505
1 23.3836 19.6715 14.4378
1 24.9614 20.4756 15.2504
1 25.7551 19.6819 15.2504
1 25.7842 20.4571 14.4267
1 24.9734 19.7065 14.4601
1 26.5488 20.4756 15.2504
1 27.3425 19.6819 15.2504
1 27.3373 20.5177 14.4675
1 26.5499 19.6935 14.4637
1 28.1362 20.4756 15.2504
1 28.9299 19.6819 15.2504
1 28.9605 20.4996 14.4448
1 28.1383 19.7174 14.4398
1 29.7236 20.4756 15.2504
1 0.517315 19.6819 15.2504
1 0.514218 20.4844 14.4413
1 29.7049 19.6896 14.4698
1 1.31102 20.4756 15.2504
1 2.10472 19.6819 15.2504
1 2.10887 20.4543 14.4383
1 1.29828 19.6823 14.4264
1 2.89842 20.4756 15.2504
1 3.69212 19.6819 15.2504
1 3.68323 20.4952 14.4485
1 2.90838 19.6857 14.4364
1 4.48582 20.4756 15.2504
1 5.27952 19.6819 15.2504
1 5.28066 20.4858 14.4592
1 4.48565 19.6888 14.444
1 6.07322 20.4756 15.2504
1 6.86692 19.6819 15.2504
1 6.81688 20.481 14.425
1 6.05611 19.6636 14.4472
1 7.5 18.8882 15.2504
1 8.2937 18.0945 15.2504
1 8.33031 18.8919 14.4493
1 7.58443 18.1043 14.3939
1 9.0874 18.8882 15.2504
1 9.8811 18.0945 15.2504
1 9.88238 18.8921 14.4257
1 9.11617 18.1088 14.4834
1 10.6748 18.8882 15.2504
1 11.4685 18.0945 15.2504
1 11.4902 18.8814 14.4655
1 10.7012 18.0905 14.4623
1 12.2622 18.8882 15.2504
1 13.0559 18.0945 15.2504
1 13.0441 18.8991 14.4472
1 12.2583 18.0819 14.4625
1 13.8496 18.8882 15.2504
1 14.6433 18.0945 15.2504
1 14.6497 18.8951 14.4565
1 13.8414 18.1087 14.4644
1 15.437 18.8882 15.2504
1 16.2307 18.0945 15.2504
1 16.2454 18.8893 14.469
1 15.4317 18.1133 14.4401
1 17.0244 18.8882 15.2504
1 17.8181 18.0945 15.2504
1 17.8281 18.8719 14.4389
1 17.0055 18.0879 14.4791
1 18.6118 18.8882 15.2504
1 19.4055 18.0945 15.2504
1 19.4261 18.8946 14.4885
1 18.6264 18.1164 14.4753
1 20.1992 18.8882 15.2504
1 20.9929 18.0945 15.2504
1 20.985 18.882 14.4533
1 20.1922 18.0919 14.468
1 21.7866 18.8882 15.2504
1 22.5803 18.0945 15.2504
1 22.5934 18.9009 14.4514
1 21.7934 18.1164 14.4761
1 23.374 18.8882 15.2504
1 24.1677 18.0945 15.2504
1 24.1514 18.8755 14.4588
1 23.3678 18.1043 14.4456
1 24.9614 18.8882 15.2504
1 25.7551 18.0945 15.2504
1 25.7621 18.8766 14.4758
1 24.9682 18.0918 14.459
1 26.5488 18.8882 15.2504
1 27.3425 18.0945 15.2504
1 27.3312 18.8862 14.4702
1 26.5481 18.1001 14.47
1 28.1362 18.8882 15.2504
1 28.9299 18.0945 15.2504
1 28.9383 18.8777 14.4364
1 28.1331 18.0866 14.4633
1 29.7236 18.8882 15.2504
1 0.517315 18.0945 15.2504
1 0.516512 18.8917 14.4539
1 29.7403 18.0877 14.4453
1 1.31102 18.8882 15.2504
1 2.10472 18.0945 15.2504
1 2.11582 18.8783 14.4435
1 1.28472 18.1085 14.4482
1 2.89842 18.8882 15.2504
1 3.69212 18.0945 15.2504
1 3.66769 18.8991 14.4549
1 2.89152 18.0823 14.4515
1 4.48582 18.8882 15.2504
1 5.27952 18.0945 15.2504
1 5.25279 18.9013 14.4572
1 4.47364 18.1034 14.4377
1 6.07322 18.8882 15.2504
1 6.86692 18.0945 15.2504
1 6.80768 18.8794 14.4114
1 6.02393 18.0986 14.4612
1 7.5 17.3008 15.2504
1 8.2937 16.5071 15.2504
1 8.33528 17.2945 14.4509
1 7.57126 16.5168 14.4226
1 9.0874 17.3008 15.2504
1 9.8811 16.5071 15.2504
1 9.91456 17.3034 14.4606
1 9.12427 16.5093 14.4699
1 10.6748 17.3008 15.2504
1 11.4685 16.5071 15.2504
1 11.4859 17.3397 14.4381
1 10.6837 16.5171 14.467
1 12.2622 17.3008 15.2504
1 13.0559 16.5071 15.2504
1 13.0685 17.3081 14.4546
1 12.2355 16.5092 14.4586
1 13.8496 17.3008 15.2504
1 14.6433 16.5071 15.2504
1 14.653 17.2956 14.4631
1 13.8564 16.4868 14.4498
1 15.437 17.3008 15.2504
1 16.2307 16.5071 15.2504
1 16.2263 17.2845 14.4715
1 15.4265 16.4818 14.4686
1 17.0244 17.3008 15.2504
1 17.8181 16.5071 15.2504
1 17.8212 17.3121 14.4665
1 17.0264 16.5121 14.4742
1 18.6118 17.3008 15.2504
1 19.4055 16.5071 15.2504
1 19.3978 17.295 14.4633
1 18.5985 16.5225 14.4492
1 20.1992 17.3008 15.2504
1 20.9929 16.5071 15.2504
1 20.9699 17.326 14.4345
1 20.1825 16.5249 14.4477
1 21.7866 17.3008 15.2504
1 22.5803 16.5071 15.2504
1 22.5722 17.29 14.465
1 21.7728 16.5202 14.452
1 23.374 17.3008 15.2504
1 24.1677 16.5071 15.2504
1 24.1562 17.2736 14.4651
1 23.3544 16.5024 14.4908
1 24.9614 17.3008 15.2504
1 25.7551 16.5071 15.2504
1 25.7659 17.2897 14.4711
1 24.9669 16.5249 14.4449
1 26.5488 17.3008 15.2504
1 27.3425 16.5071 15.2504
1 27.3246 17.3024 14.4584
1 26.561 16.4879 14.4431
1 28.1362 17.3008 15.2504
1 28.9299 16.5071 15.2504
1 28.9447 17.3143 14.4769
1 28.1488 16.5193 14.4329
1 29.7236 17.3008 15.2504
1 0.517315 16.5071 15.2504
1 0.523718 17.3248 14.4744
1 29.7476 16.5164 14.4753
1 1.31102 17.3008 15.2504
1 2.10472 16.5071 15.2504
1 2.08203 17.3327 14.4246
1 1.30215 16.4966 14.4776
1 2.89842 17.3008 15.2504
1 3.69212 16.5071 15.2504
1 3.68725 17.2994 14.441
1 2.88563 16.506 14.4577
1 4.48582 17.3008 15.2504
1 5.27952 16.5071 15.2504
1 5.25813 17.2933 14.4454
1 4.48278 16.505 14.4772
1 6.07322 17.3008 15.2504
1 6.86692 16.5071 15.2504
1 6.79638 17.3046 14.4266
1 6.05386 16.5086 14.4332
1 7.5 15.7134 15.2504
1 8.2937 14.9197 15.2504
1 8.34342 15.7198 14.4355
1 7.56389 14.9317 14.4613
1 9.0874 15.7134 15.2504
1 9.8811 14.9197 15.2504
1 9.88912 15.6888 14.468
1 9.1209 14.9199 14.4497
1 10.6748 15.7134 15.2504
1 11.4685 14.9197 15.2504
1 11.4775 15.7258 14.4625
1 10.6855 14.9195 14.4487
1 12.2622 15.7134 15.2504
1 13.0559 14.9197 15.2504
1 13.0509 15.7257 14.4655
1 12.2699 14.9309 14.477
1 13.8496 15.7134 15.2504
1 14.6433 14.9197 15.2504
1 14.6382 15.7167 14.4369
1 13.8353 14.9126 14.4859
1 15.437 15.7134 15.2504
1 16.2307 14.9197 15.2504
1 16.2004 15.6972 14.4535
1 15.4306 14.895 14.4607
1 17.0244 15.7134 15.2504
1 17.8181 14.9197 15.2504
1 17.8208 15.727 14.4603
1 16.9963 14.9321 14.4655
1 18.6118 15.7134 15.2504
1 19.4055 14.9197 15.2504
1 19.4078 15.7116 14.4791
1 18.6118 14.9601 14.4697
1 20.1992 15.7134 15.2504
1 20.9929 14.9197 15.2504
1 21.0022 15.7301 14.4937
1 20.2024 14.9201 14.4747
1 21.7866 15.7134 15.2504
1 22.5803 14.9197 15.2504
1 22.5559 15.7089 14.478
1 21.812 14.9187 14.4617
1 23.374 15.7134 15.2504
1 24.1677 14.9197 15.2504
1 24.1353 15.6881 14.4549
1 23.3559 14.9033 14.4636
1 24.9614 15.7134 15.2504
1 25.7551 14.9197 15.2504
1 25.7682 15.6857 14.4458
1 24.9505 14.9093 14.4614
1 26.5488 15.7134 15.2504
1 27.3425 14.9197 15.2504
1 27.3415 15.7267 14.4483
1 26.5637 14.9002 14.4664
1 28.1362 15.7134 15.2504
1 28.9299 14.9197 15.2504
1 28.917 15.7091 14.4586
1 28.1164 14.9597 14.4572
1 29.7236 15.7134 15.2504
1 0.517315 14.9197 15.2504
1 0.521535 15.7076 14.4591
1 29.7378 14.9248 14.4785
1 1.31102 15.7134 15.2504
1 2.10472 14.9197 15.2504
1 2.10364 15.7013 14.4602
1 1.29896 14.9302 14.4295
1 2.89842 15.7134 15.2504
1 3.69212 14.9197 15.2504
1 3.67138 15.7017 14.4587
1 2.88202 14.888 14.4559
1 4.48582 15.7134 15.2504
1 5.27952 14.9197 15.2504
1 5.25279 15.6995 14.4499
1 4.46556 14.905 14.4452
1 6.07322 15.7134 15.2504
1 6.86692 14.9197 15.2504
1 6.83191 15.6947 14.4324
1 6.03119 14.9164 14.456
1 7.5 14.126 15.2504
1 8.2937 13.3323 15.2504
1 8.3543 14.1197 14.4601
1 7.58863 13.3452 14.4281
1 9.0874 14.126 15.2504
1 9.8811 13.3323 15.2504
1 9.90553 14.1171 14.4346
1 9.11993 13.3237 14.4532
1 10.6748 14.126 15.2504
1 11.4685 13.3323 15.2504
1 11.4707 14.0869 14.4563
1 10.6827 13.3137 14.4605
1 12.2622 14.126 15.2504
1 13.0559 13.3323 15.2504
1 13.0455 14.1388 14.4591
1 12.2621 13.3294 14.4592
1 13.8496 14.126 15.2504
1 14.6433 13.3323 15.2504
1 14.6572 14.1268 14.4602
1 13.8091 13.3443 14.4549
1 15.437 14.126 15.2504
1 16.2307 13.3323 15.2504
1 16.1993 14.1172 14.4592
1 15.3944 13.3241 14.4438
1 17.0244 14.126 15.2504
1 17.8181 13.3323 15.2504
1 17.811 14.1306 14.4789
1 17.0123 13.3366 14.478
1 18.6118 14.126 15.2504
1 19.4055 13.3323 15.2504
1 19.4109 14.1312 14.4425
1 18.5967 13.3482 14.4698
1 20.1992 14.126 15.2504
1 20.9929 13.3323 15.2504
1 21.021 14.1205 14.4682
1 20.2157 13.3506 14.4584
1 21.7866 14.126 15.2504
1 22.5803 13.3323 15.2504
1 22.5795 14.1293 14.4607
1 21.7978 13.3212 14.4386
1 23.374 14.126 15.2504
1 24.1677 13.3323 15.2504
1 24.159 14.1314 14.4539
1 23.3571 13.3257 14.4471
1 24.9614 14.126 15.2504
1 25.7551 13.3323 15.2504
1 25.7752 14.1163 14.4569
1 24.9582 13.3444 14.4414
1 26.5488 14.126 15.2504
1 27.3425 13.3323 15.2504
1 27.3276 14.134 14.4367
1 26.5482 13.3202 14.4227
1 28.1362 14.126 15.2504
1 28.9299 13.3323 15.2504
1 28.8889 14.1341 14.4684
1 28.1091 13.3128 14.4624
1 29.7236 14.126 15.2504
1 0.517315 13.3323 15.2504
1 0.515599 14.1191 14.4723
1 29.7128 13.3258 14.4299
1 1.31102 14.126 15.2504
1 2.10472 13.3323 15.2504
1 2.09034 14.1249 14.4341
1 1.30546 13.3373 14.4539
1 2.89842 14.126 15.2504
1 3.69212 13.3323 15.2504
1 3.69629 14.1499 14.4664
1 2.87918 13.3362 14.4393
1 4.48582 14.126 15.2504
1 5.27952 13.3323 15.2504
1 5.25958 14.1299 14.4429
1 4.47187 13.3354 14.4484
1 6.07322 14.126 15.2504
1 6.86692 13.3323 15.2504
1 6.80164 14.1418 14.4259
1 6.05629 13.3334 14.4406
1 7.5 12.5386 15.2504
1 8.2937 11.7449 15.2504
1 8.34662 12.5227 14.4347
1 7.59151 11.7308 14.4306
1 9.0874 12.5386 15.2504
1 9.8811 11.7449 15.2504
1 9.8859 12.5516 14.4647
1 9.12122 11.7128 14.451
1 10.6748 12.5386 15.2504
1 11.4685 11.7449 15.2504
1 11.4707 12.5222 14.4718
1 10.6673 11.7245 14.4597
1 12.2622 12.5386 15.2504
1 13.0559 11.7449 15.2504
1 13.0651 12.5311 14.4427
1 12.2591 11.7371 14.4655
1 13.8496 12.5386 15.2504
1 14.6433 11.7449 15.2504
1 14.6343 12.5585 14.4668
1 13.8265 11.7619 14.4618
1 15.437 12.5386 15.2504
1 16.2307 11.7449 15.2504
1 16.2375 12.5407 14.463
1 15.4464 11.7215 14.4802
1 17.0244 12.5386 15.2504
1 17.8181 11.7449 15.2504
1 17.7997 12.5444 14.5022
1 17.0213 11.7272 14.4579
1 18.6118 12.5386 15.2504
1 19.4055 11.7449 15.2504
1 19.3927 12.5544 14.4704
1 18.6173 11.7367 14.4791
1 20.1992 12.5386 15.2504
1 20.9929 11.7449 15.2504
1 21.0018 12.5259 14.4675
1 20.1981 11.7361 14.4449
1 21.7866 12.5386 15.2504
1 22.5803 11.7449 15.2504
1 22.5754 12.5124 14.4746
1 21.7782 11.7192 14.4335
1 23.374 12.5386 15.2504
1 24.1677 11.7449 15.2504
1 24.1494 12.5346 14.4709
1 23.3648 11.7352 14.4595
1 24.9614 12.5386 15.2504
1 25.7551 11.7449 15.2504
1 25.7371 12.5549 14.4423
1 24.9499 11.7585 14.4405
1 26.5488 12.5386 15.2504
1 27.3425 11.7449 15.2504
1 27.333 12.5199 14.4441
1 26.5512 11.7218 14.4575
1 28.1362 12.5386 15.2504
1 28.9299 11.7449 15.2504
1 28.9308 12.5635 14.459
1 28.1156 11.7421 14.4921
1 29.7236 12.5386 15.2504
1 0.517315 11.7449 15.2504
1 0.541302 12.5578 14.463
1 29.7399 11.7757 14.4851
1 1.31102 12.5386 15.2504
1 2.10472 11.7449 15.2504
1 2.08872 12.5441 14.4541
1 1.30647 11.7592 14.4711
1 2.89842 12.5386 15.2504
1 3.69212 11.7449 15.2504
1 3.69915 12.5419 14.4607
1 2.9053 11.7433 14.4842
1 4.48582 12.5386 15.2504
1 5.27952 11.7449 15.2504
1 5.28384 12.5347 14.4482
1 4.4539 11.7542 14.4573
1 6.07322 12.5386 15.2504
1 6.86692 11.7449 15.2504
1 6.78514 12.5249 14.4047
1 6.02139 11.7486 14.4401
1 7.5 10.9512 15.2504
1 8.2937 10.1575 15.2504
1 8.33853 10.9372 14.4296
1 7.57441 10.1553 14.4172
1 9.0874 10.9512 15.2504
1 9.8811 10.1575 15.2504
1 9.89525 10.927 14.4716
1 9.09946 10.1609 14.4464
1 10.6748 10.9512 15.2504
1 11.4685 10.1575 15.2504
1 11.4729 10.9335 14.4825
1 10.688 10.1281 14.463
1 12.2622 10.9512 15.2504
1 13.0559 10.1575 15.2504
1 13.052 10.9526 14.4686
1 12.283 10.1537 14.4556
1 13.8496 10.9512 15.2504
1 14.6433 10.1575 15.2504
1 14.604 10.9762 14.4702
1 13.845 10.1364 14.4623
1 15.437 10.9512 15.2504
1 16.2307 10.1575 15.2504
1 16.2161 10.9339 14.4648
1 15.401 10.1839 14.4672
1 17.0244 10.9512 15.2504
1 17.8181 10.1575 15.2504
1 17.8209 10.9255 14.4459
1 17.0378 10.1387 14.4829
1 18.6118 10.9512 15.2504
1 19.4055 10.1575 15.2504
1 19.4139 10.9567 14.4586
1 18.6194 10.1597 14.4525
1 20.1992 10.9512 15.2504
1 20.9929 10.1575 15.2504
1 20.972 10.9369 14.466
1 20.2002 10.14 14.4553
1 21.7866 10.9512 15.2504
1 22.5803 10.1575 15.2504
1 22.5471 10.9428 14.4685
1 21.7742 10.1294 14.4493
1 23.374 10.9512 15.2504
1 24.1677 10.1575 15.2504
1 24.1521 10.9438 14.4616
1 23.3468 10.147 14.4573
1 24.9614 10.9512 15.2504
1 25.7551 10.1575 15.2504
1 25.7546 10.9684 14.469
1 24.9902 10.1406 14.454
1 26.5488 10.9512 15.2504
1 27.3425 10.1575 15.2504
1 27.3389 10.9355 14.4771
1 26.5582 10.1511 14.4779
1 28.1362 10.9512 15.2504
1 28.9299 10.1575 15.2504
1 28.929 10.9519 14.4604
1 28.1465 10.1629 14.4682
1 29.7236 10.9512 15.2504
1 0.517315 10.1575 15.2504
1 0.499365 10.9429 14.4627
1 29.7111 10.1566 14.463
1 1.31102 10.9512 15.2504
1 2.10472 10.1575 15.2504
1 2.12253 10.9484 14.4458
1 1.29578 10.1604 14.4694
1 2.89842 10.9512 15.2504
1 3.69212 10.1575 15.2504
1 3.67521 10.9592 14.472
1 2.88673 10.1557 14.4412
1 4.48582 10.9512 15.2504
1 5.27952 10.1575 15.2504
1 5.23264 10.9789 14.4512
1 4.46886 10.171 14.4816
1 6.07322 10.9512 15.2504
1 6.86692 10.1575 15.2504
1 6.78028 10.9525 14.4546
1 6.02526 10.1489 14.4743
1 7.5 9.36379 15.2504
1 8.2937 8.57009 15.2504
1 8.33033 9.35193 14.4526
1 7.54413 8.56642 14.425
1 9.0874 9.36379 15.2504
1 9.8811 8.57009 15.2504
1 9.89291 9.33581 14.4584
1 9.09054 8.57393 14.4721
1 10.6748 9.36379 15.2504
1 11.4685 8.57009 15.2504
1 11.4879 9.36185 14.4513
1 10.6776 8.57996 14.431
1 12.2622 9.36379 15.2504
1 13.0559 8.57009 15.2504
1 13.0649 9.36881 14.4664
1 12.2815 8.56758 14.4392
1 13.8496 9.36379 15.2504
1 14.6433 8.57009 15.2504
1 14.6471 9.3813 14.4567
1 13.8665 8.58289 14.4271
1 15.437 9.36379 15.2504
1 16.2307 8.57009 15.2504
1 16.2273 9.36248 14.4686
1 15.424 8.5643 14.461
1 17.0244 9.36379 15.2504
1 17.8181 8.57009 15.2504
1 17.8177 9.37498 14.4615
1 17.033 8.55333 14.4646
1 18.6118 9.36379 15.2504
1 19.4055 8.57009 15.2504
1 19.4142 9.38226 14.4086
1 18.6221 8.58646 14.4625
1 20.1992 9.36379 15.2504
1 20.9929 8.57009 15.2504
1 21.0095 9.36175 14.4443
1 20.203 8.59492 14.4416
1 21.7866 9.36379 15.2504
1 22.5803 8.57009 15.2504
1 22.5741 9.35141 14.4728
1 21.7893 8.5901 14.4622
1 23.374 9.36379 15.2504
1 24.1677 8.57009 15.2504
1 24.1582 9.37099 14.4679
1 23.3627 8.56579 14.4757
1 24.9614 9.36379 15.2504
1 25.7551 8.57009 15.2504
1 25.7635 9.35403 14.453
1 24.956 8.56187 14.4675
1 26.5488 9.36379 15.2504
1 27.3425 8.57009 15.2504
1 27.3438 9.36234 14.4315
1 26.5589 8.5807 14.4714
1 28.1362 9.36379 15.2504
1 28.9299 8.57009 15.2504
1 28.9197 9.35806 14.4682
1 28.1272 8.5642 14.448
1 29.7236 9.36379 15.2504
1 0.517315 8.57009 15.2504
1 0.512269 9.35558 14.4459
1 29.7335 8.56794 14.4772
1 1.31102 9.36379 15.2504
1 2.10472 8.57009 15.2504
1 2.09163 9.36076 14.4712
1 1.29838 8.5789 14.4544
1 2.89842 9.36379 15.2504
1 3.69212 8.57009 15.2504
1 3.68524 9.35808 14.4449
1 2.88901 8.56444 14.456
1 4.48582 9.36379 15.2504
1 5.27952 8.57009 15.2504
1 5.25679 9.35555 14.4626
1 4.47498 8.57044 14.4567
1 6.07322 9.36379 15.2504
1 6.86692 8.57009 15.2504
1 6.79253 9.36789 14.4492
1 6.03092 8.56989 14.4279
1 7.5 7.77639 15.2504
1 8.2937 6.98268 15.2504
1 8.3088 7.7895 14.4361
1 7.55797 6.97292 14.4231
1 9.0874 7.77639 15.2504
1 9.8811 6.98268 15.2504
1 9.88214 7.77849 14.4651
1 9.1024 6.98814 14.4447
1 10.6748 7.77639 15.2504
1 11.4685 6.98268 15.2504
1 11.469 7.7723 14.4719
1 10.6835 7.00311 14.4481
1 12.2622 7.77639 15.2504
1 13.0559 6.98268 15.2504
1 13.0801 7.76312 14.4618
1 12.2856 6.99505 14.4348
1 13.8496 7.77639 15.2504
1 14.6433 6.98268 15.2504
1 14.6593 7.79511 14.4751
1 13.8548 7.00997 14.4552
1 15.437 7.77639 15.2504
1 16.2307 6.98268 15.2504
1 16.2062 7.77069 14.4731
1 15.4251 6.98035 14.4372
1 17.0244 7.77639 15.2504
1 17.8181 6.98268 15.2504
1 17.8255 7.77798 14.4555
1 17.0364 6.97675 14.4836
1 18.6118 7.77639 15.2504
1 19.4055 6.98268 15.2504
1 19.4096 7.78497 14.4727
1 18.6081 6.98325 14.4507
1 20.1992 7.77639 15.2504
1 20.9929 6.98268 15.2504
1 20.9902 7.78969 14.4471
1 20.1882 6.9839 14.4489
1 21.7866 7.77639 15.2504
1 22.5803 6.98268 15.2504
1 22.555 7.78184 14.4839
1 21.7716 7.00252 14.4418
1 23.374 7.77639 15.2504
1 24.1677 6.98268 15.2504
1 24.139 7.79623 14.4452
1 23.3734 7.01086 14.4664
1 24.9614 7.77639 15.2504
1 25.7551 6.98268 15.2504
1 25.7449 7.77874 14.435
1 24.9344 6.98734 14.4542
1 26.5488 7.77639 15.2504
1 27.3425 6.98268 15.2504
1 27.3285 7.76443 14.4486
1 26.5305 6.9795 14.435
1 28.1362 7.77639 15.2504
1 28.9299 6.98268 15.2504
1 28.9383 7.76119 14.4685
1 28.1438 6.97235 14.4679
1 29.7236 7.77639 15.2504
1 0.517315 6.98268 15.2504
1 0.515758 7.74784 14.434
1 29.7276 6.9531 14.4415
1 1.31102 7.77639 15.2504
1 2.10472 6.98268 15.2504
1 2.10566 7.7733 14.4609
1 1.31538 6.96917 14.4456
1 2.89842 7.77639 15.2504
1 3.69212 6.98268 15.2504
1 3.66948 7.79003 14.4313
1 2.94051 6.9948 14.4567
1 4.48582 7.77639 15.2504
1 5.27952 6.98268 15.2504
1 5.23299 7.80839 14.4594
1 4.46903 6.98758 14.4617
1 6.07322 7.77639 15.2504
1 6.86692 6.98268 15.2504
1 6.8103 7.78588 14.4107
1 6.03533 7.01581 14.4484
1 7.5 6.18898 15.2504
1 8.2937 5.39528 15.2504
1 8.32289 6.18129 14.4587
1 7.57518 5.39688 14.4122
1 9.0874 6.18898 15.2504
1 9.8811 5.39528 15.2504
1 9.89482 6.18745 14.453
1 9.12443 5.40563 14.4561
1 10.6748 6.18898 15.2504
1 11.4685 5.39528 15.2504
1 11.4583 6.19267 14.4804
1 10.6737 5.38082 14.4595
1 12.2622 6.18898 15.2504
1 13.0559 5.39528 15.2504
1 13.0611 6.20751 14.4642
1 12.2907 5.3952 14.4411
1 13.8496 6.18898 15.2504
1 14.6433 5.39528 15.2504
1 14.624 6.19127 14.4756
1 13.8414 5.41159 14.4584
1 15.437 6.18898 15.2504
1 16.2307 5.39528 15.2504