9376
Atoms. Timestep: 4000000
1 15 3.55271e-15 10.646
1 15.7937 29.2063 10.646
1 15.837 29.9375 9.80981
1 15.0615 29.1738 9.80063
1 16.5874 3.55271e-15 10.646
1 17.3811 29.2063 10.646
1 17.4014 29.9118 9.81015
1 16.609 29.1518 9.79946
1 18.1748 3.55271e-15 10.646
1 18.9685 29.2063 10.646
1 18.9786 29.9266 9.82009
1 18.1993 29.1654 9.83157
1 19.7622 3.55271e-15 10.646
1 20.5559 29.2063 10.646
1 20.5383 29.9354 9.80978
1 19.7513 29.18 9.82777
1 21.3496 3.55271e-15 10.646
1 22.1433 29.2063 10.646
1 22.1432 29.941 9.8313
1 21.3604 29.1849 9.84734
1 22.937 3.55271e-15 10.646
1 23.7307 29.2063 10.646
1 23.7126 29.9203 9.83323
1 22.9582 29.1933 9.84474
1 24.5244 3.55271e-15 10.646
1 25.3181 29.2063 10.646
1 25.3358 29.9272 9.82446
1 24.5361 29.1711 9.85965
1 26.1118 3.55271e-15 10.646
1 26.9055 29.2063 10.646
1 26.9105 29.9439 9.80421
1 26.0965 29.1602 9.8366
1 27.6992 3.55271e-15 10.646
1 28.4929 29.2063 10.646
1 28.4919 29.9109 9.82331
1 27.7112 29.1787 9.85288
1 29.2866 3.55271e-15 10.646
1 0.08031 29.2063 10.646
1 0.0937165 29.932 9.81179
1 29.2946 29.1942 9.83285
1 0.874011 3.55271e-15 10.646
1 1.66771 29.2063 10.646
1 1.66307 29.9421 9.81655
1 0.907816 29.1874 9.83558
1 2.46141 3.55271e-15 10.646
1 3.25511 29.2063 10.646
1 3.24287 29.9132 9.79155
1 2.45322 29.1693 9.87933
1 4.04881 3.55271e-15 10.646
1 4.84251 29.2063 10.646
1 4.84344 29.9104 9.79144
1 4.02289 29.1977 9.8362
1 5.63621 3.55271e-15 10.646
1 6.42991 29.2063 10.646
1 6.42199 29.9193 9.82144
1 5.64979 29.1887 9.83947
1 7.22361 3.55271e-15 10.646
1 8.01732 29.2063 10.646
1 8.01953 29.9271 9.82146
1 7.23046 29.1634 9.82475
1 8.81102 3.55271e-15 10.646
1 9.60472 29.2063 10.646
1 9.58434 29.9357 9.81679
1 8.80496 29.1546 9.85054
1 10.3984 3.55271e-15 10.646
1 11.1921 29.2063 10.646
1 11.1658 29.9333 9.78412
1 10.3794 29.1855 9.84602
1 11.9858 3.55271e-15 10.646
1 12.7795 29.2063 10.646
1 12.7362 29.9438 9.83006
1 11.9418 29.1885 9.84728
1 13.5732 3.55271e-15 10.646
1 14.3669 29.2063 10.646
1 14.2894 29.9523 9.76995
1 13.535 29.1886 9.83131
1 15 28.4126 10.646
1 15.7937 27.6189 10.646
1 15.8231 28.4087 9.82547
1 15.0723 27.6151 9.81527
1 16.5874 28.4126 10.646
1 17.3811 27.6189 10.646
1 17.3874 28.4085 9.8428
1 16.6181 27.6189 9.84956
1 18.1748 28.4126 10.646
1 18.9685 27.6189 10.646
1 18.9764 28.3811 9.83938
1 18.1895 27.6009 9.84829
1 19.7622 28.4126 10.646
1 20.5559 27.6189 10.646
1 20.5582 28.4012 9.83955
1 19.7681 27.5779 9.86272
1 21.3496 28.4126 10.646
1 22.1433 27.6189 10.646
1 22.1544 28.384 9.85296
1 21.3478 27.5828 9.86712
1 22.937 28.4126 10.646
1 23.7307 27.6189 10.646
1 23.7285 28.3712 9.84336
1 22.9268 27.6104 9.85741
1 24.5244 28.4126 10.646
1 25.3181 27.6189 10.646
1 25.314 28.4029 9.86424
1 24.5312 27.6089 9.85607
1 26.1118 28.4126 10.646
1 26.9055 27.6189 10.646
1 26.8819 28.398 9.88761
1 26.1054 27.6427 9.85873
1 27.6992 28.4126 10.646
1 28.4929 27.6189 10.646
1 28.5222 28.4188 9.83033
1 27.6811 27.626 9.86481
1 29.2866 28.4126 10.646
1 0.08031 27.6189 10.646
1 0.113202 28.3869 9.85485
1 29.2602 27.5944 9.83163
1 0.874011 28.4126 10.646
1 1.66771 27.6189 10.646
1 1.66977 28.3887 9.87275
1 0.894831 27.5986 9.84708
1 2.46141 28.4126 10.646
1 3.25511 27.6189 10.646
1 3.25675 28.3982 9.84701
1 2.44543 27.6259 9.8655
1 4.04881 28.4126 10.646
1 4.84251 27.6189 10.646
1 4.84185 28.3871 9.82844
1 4.06821 27.6239 9.84338
1 5.63621 28.4126 10.646
1 6.42991 27.6189 10.646
1 6.42105 28.3953 9.85772
1 5.62777 27.5921 9.8574
1 7.22361 28.4126 10.646
1 8.01732 27.6189 10.646
1 8.03691 28.3832 9.84817
1 7.22688 27.6188 9.85541
1 8.81102 28.4126 10.646
1 9.60472 27.6189 10.646
1 9.60214 28.3948 9.84724
1 8.80651 27.6196 9.84706
1 10.3984 28.4126 10.646
1 11.1921 27.6189 10.646
1 11.1738 28.3915 9.83864
1 10.3875 27.6238 9.82539
1 11.9858 28.4126 10.646
1 12.7795 27.6189 10.646
1 12.7753 28.4066 9.83074
1 11.9827 27.585 9.88531
1 13.5732 28.4126 10.646
1 14.3669 27.6189 10.646
1 14.3074 28.3924 9.81374
1 13.5324 27.5982 9.82561
1 15 26.8252 10.646
1 15.7937 26.0315 10.646
1 15.8368 26.8315 9.83657
1 15.0784 26.0341 9.82055
1 16.5874 26.8252 10.646
1 17.3811 26.0315 10.646
1 17.4219 26.8221 9.85535
1 16.6294 26.0286 9.85274
1 18.1748 26.8252 10.646
1 18.9685 26.0315 10.646
1 18.9953 26.798 9.86884
1 18.2022 25.9903 9.85537
1 19.7622 26.8252 10.646
1 20.5559 26.0315 10.646
1 20.549 26.8113 9.86758
1 19.7545 26.0317 9.86021
1 21.3496 26.8252 10.646
1 22.1433 26.0315 10.646
1 22.1472 26.8112 9.84624
1 21.3641 26.0245 9.85369
1 22.937 26.8252 10.646
1 23.7307 26.0315 10.646
1 23.7294 26.8089 9.87902
1 22.9609 26.0208 9.85015
1 24.5244 26.8252 10.646
1 25.3181 26.0315 10.646
1 25.3092 26.8148 9.86507
1 24.5334 26.0272 9.86854
1 26.1118 26.8252 10.646
1 26.9055 26.0315 10.646
1 26.8946 26.8168 9.8625
1 26.1269 26.0375 9.90485
1 27.6992 26.8252 10.646
1 28.4929 26.0315 10.646
1 28.4987 26.7986 9.87125
1 27.7001 26.0441 9.85147
1 29.2866 26.8252 10.646
1 0.08031 26.0315 10.646
1 0.0910262 26.8072 9.84436
1 29.2706 26.0309 9.87455
1 0.874011 26.8252 10.646
1 1.66771 26.0315 10.646
1 1.65599 26.8568 9.83756
1 0.870483 26.0203 9.8692
1 2.46141 26.8252 10.646
1 3.25511 26.0315 10.646
1 3.2321 26.848 9.86891
1 2.42635 26.0605 9.86406
1 4.04881 26.8252 10.646
1 4.84251 26.0315 10.646
1 4.84823 26.8193 9.87468
1 4.05563 26.0274 9.85102
1 5.63621 26.8252 10.646
1 6.42991 26.0315 10.646
1 6.4744 26.83 9.82847
1 5.63496 26.016 9.81911
1 7.22361 26.8252 10.646
1 8.01732 26.0315 10.646
1 8.03083 26.8464 9.83643
1 7.21989 26.0386 9.83775
1 8.81102 26.8252 10.646
1 9.60472 26.0315 10.646
1 9.62119 26.8313 9.8419
1 8.79639 26.0442 9.83305
1 10.3984 26.8252 10.646
1 11.1921 26.0315 10.646
1 11.173 26.8132 9.82892
1 10.3858 26.0165 9.84559
1 11.9858 26.8252 10.646
1 12.7795 26.0315 10.646
1 12.7664 26.8138 9.85461
1 11.9799 26.0324 9.84735
1 13.5732 26.8252 10.646
1 14.3669 26.0315 10.646
1 14.2915 26.8252 9.82945
1 13.552 26.0025 9.85336
1 15 25.2378 10.646
1 15.7937 24.4441 10.646
1 15.8301 25.2373 9.85678
1 15.0438 24.4423 9.82254
1 16.5874 25.2378 10.646
1 17.3811 24.4441 10.646
1 17.3739 25.2419 9.87609
1 16.5929 24.4419 9.85748
1 18.1748 25.2378 10.646
1 18.9685 24.4441 10.646
1 18.9922 25.2432 9.85156
1 18.1775 24.4499 9.84806
1 19.7622 25.2378 10.646
1 20.5559 24.4441 10.646
1 20.5268 25.2372 9.83103
1 19.7627 24.4142 9.8379
1 21.3496 25.2378 10.646
1 22.1433 24.4441 10.646
1 22.1188 25.2303 9.83622
1 21.3467 24.4559 9.84986
1 22.937 25.2378 10.646
1 23.7307 24.4441 10.646
1 23.7268 25.2157 9.83359
1 22.937 24.4223 9.84741
1 24.5244 25.2378 10.646
1 25.3181 24.4441 10.646
1 25.3247 25.2552 9.85139
1 24.538 24.4473 9.84733
1 26.1118 25.2378 10.646
1 26.9055 24.4441 10.646
1 26.8978 25.2593 9.8554
1 26.1085 24.4748 9.83175
1 27.6992 25.2378 10.646
1 28.4929 24.4441 10.646
1 28.4796 25.2446 9.86927
1 27.6848 24.434 9.86586
1 29.2866 25.2378 10.646
1 0.08031 24.4441 10.646
1 0.0745699 25.2291 9.84574
1 29.2759 24.4328 9.84389
1 0.874011 25.2378 10.646
1 1.66771 24.4441 10.646
1 1.64956 25.2436 9.84992
1 0.865246 24.4129 9.86317
1 2.46141 25.2378 10.646
1 3.25511 24.4441 10.646
1 3.24726 25.2446 9.83821
1 2.45192 24.4335 9.84922
1 4.04881 25.2378 10.646
1 4.84251 24.4441 10.646
1 4.84273 25.2576 9.85866
1 4.03944 24.4477 9.85315
1 5.63621 25.2378 10.646
1 6.42991 24.4441 10.646
1 6.42473 25.2449 9.85712
1 5.61605 24.4577 9.86461
1 7.22361 25.2378 10.646
1 8.01732 24.4441 10.646
1 8.02149 25.251 9.84955
1 7.23485 24.438 9.87509
1 8.81102 25.2378 10.646
1 9.60472 24.4441 10.646
1 9.59998 25.2389 9.83719
1 8.80615 24.435 9.855
1 10.3984 25.2378 10.646
1 11.1921 24.4441 10.646
1 11.211 25.235 9.84115
1 10.3965 24.4548 9.85209
1 11.9858 25.2378 10.646
1 12.7795 24.4441 10.646
1 12.7635 25.212 9.85633
1 11.9647 24.428 9.86767
1 13.5732 25.2378 10.646
1 14.3669 24.4441 10.646
1 14.3125 25.242 9.81882
1 13.5649 24.4103 9.84929
1 15 23.6504 10.646
1 15.7937 22.8567 10.646
1 15.8199 23.6629 9.87004
1 15.0629 22.8578 9.80457
1 16.5874 23.6504 10.646
1 17.3811 22.8567 10.646
1 17.3775 23.6451 9.85866
1 16.6064 22.8366 9.85801
1 18.1748 23.6504 10.646
1 18.9685 22.8567 10.646
1 18.947 23.6357 9.83376
1 18.1565 22.8565 9.83183
1 19.7622 23.6504 10.646
1 20.5559 22.8567 10.646
1 20.5475 23.6407 9.8415
1 19.7731 22.8395 9.86311
1 21.3496 23.6504 10.646
1 22.1433 22.8567 10.646
1 22.1522 23.6418 9.84837
1 21.3496 22.8503 9.8564
1 22.937 23.6504 10.646
1 23.7307 22.8567 10.646
1 23.7504 23.6689 9.84593
1 22.9399 22.854 9.84709
1 24.5244 23.6504 10.646
1 25.3181 22.8567 10.646
1 25.3229 23.6488 9.852
1 24.5516 22.8557 9.85791
1 26.1118 23.6504 10.646
1 26.9055 22.8567 10.646
1 26.8935 23.6443 9.84271
1 26.1077 22.8459 9.85761
1 27.6992 23.6504 10.646
1 28.4929 22.8567 10.646
1 28.4798 23.6627 9.84406
1 27.7042 22.8468 9.87349
1 29.2866 23.6504 10.646
1 0.08031 22.8567 10.646
1 0.0813289 23.6392 9.86884
1 29.2875 22.8567 9.89042
1 0.874011 23.6504 10.646
1 1.66771 22.8567 10.646
1 1.67035 23.6477 9.86211
1 0.887999 22.8639 9.87639
1 2.46141 23.6504 10.646
1 3.25511 22.8567 10.646
1 3.24183 23.63 9.84253
1 2.4475 22.8574 9.85578
1 4.04881 23.6504 10.646
1 4.84251 22.8567 10.646
1 4.82699 23.6725 9.86074
1 4.05356 22.8536 9.82352
1 5.63621 23.6504 10.646
1 6.42991 22.8567 10.646
1 6.41792 23.6745 9.87772
1 5.65014 22.8622 9.84401
1 7.22361 23.6504 10.646
1 8.01732 22.8567 10.646
1 7.98008 23.6426 9.85267
1 7.26014 22.8449 9.84643
1 8.81102 23.6504 10.646
1 9.60472 22.8567 10.646
1 9.59884 23.6412 9.86163
1 8.79993 22.8717 9.84389
1 10.3984 23.6504 10.646
1 11.1921 22.8567 10.646
1 11.1929 23.6303 9.84242
1 10.3951 22.8576 9.83467
1 11.9858 23.6504 10.646
1 12.7795 22.8567 10.646
1 12.7565 23.673 9.85311
1 11.9791 22.8573 9.87314
1 13.5732 23.6504 10.646
1 14.3669 22.8567 10.646
1 14.3044 23.6352 9.81136
1 13.5546 22.8776 9.83686
1 15 22.063 10.646
1 15.7937 21.2693 10.646
1 15.8339 22.04 9.81991
1 15.0476 21.2854 9.80367
1 16.5874 22.063 10.646
1 17.3811 21.2693 10.646
1 17.384 22.06 9.85504
1 16.6222 21.2719 9.84821
1 18.1748 22.063 10.646
1 18.9685 21.2693 10.646
1 18.9645 22.0657 9.87109
1 18.1977 21.2562 9.84821
1 19.7622 22.063 10.646
1 20.5559 21.2693 10.646
1 20.5747 22.0561 9.85573
1 19.741 21.2592 9.85909
1 21.3496 22.063 10.646
1 22.1433 21.2693 10.646
1 22.1478 22.0637 9.83347
1 21.3588 21.2418 9.84701
1 22.937 22.063 10.646
1 23.7307 21.2693 10.646
1 23.7466 22.0787 9.87172
1 22.9622 21.2848 9.86177
1 24.5244 22.063 10.646
1 25.3181 21.2693 10.646
1 25.3212 22.0535 9.8694
1 24.5348 21.303 9.84792
1 26.1118 22.063 10.646
1 26.9055 21.2693 10.646
1 26.9159 22.0455 9.83907
1 26.106 21.2516 9.84356
1 27.6992 22.063 10.646
1 28.4929 21.2693 10.646
1 28.4994 22.0555 9.85233
1 27.6829 21.25 9.86495
1 29.2866 22.063 10.646
1 0.08031 21.2693 10.646
1 0.0759582 22.0562 9.84039
1 29.2962 21.2681 9.87648
1 0.874011 22.063 10.646
1 1.66771 21.2693 10.646
1 1.67157 22.0486 9.8454
1 0.855097 21.286 9.8505
1 2.46141 22.063 10.646
1 3.25511 21.2693 10.646
1 3.23336 22.0812 9.87608
1 2.46338 21.2764 9.82993
1 4.04881 22.063 10.646
1 4.84251 21.2693 10.646
1 4.85572 22.0767 9.87901
1 4.04432 21.2512 9.82979
1 5.63621 22.063 10.646
1 6.42991 21.2693 10.646
1 6.40081 22.0646 9.84368
1 5.6437 21.2662 9.86422
1 7.22361 22.063 10.646
1 8.01732 21.2693 10.646
1 8.04157 22.0573 9.85104
1 7.21663 21.2577 9.8578
1 8.81102 22.063 10.646
1 9.60472 21.2693 10.646
1 9.61214 22.0648 9.861
1 8.82239 21.251 9.83187
1 10.3984 22.063 10.646
1 11.1921 21.2693 10.646
1 11.1817 22.0533 9.86682
1 10.3893 21.2653 9.88179
1 11.9858 22.063 10.646
1 12.7795 21.2693 10.646
1 12.7743 22.0795 9.856
1 11.9808 21.2442 9.86542
1 13.5732 22.063 10.646
1 14.3669 21.2693 10.646
1 14.3352 22.0847 9.79537
1 13.5573 21.2848 9.87248
1 15 20.4756 10.646
1 15.7937 19.6819 10.646
1 15.8442 20.4994 9.83426
1 15.0558 19.7037 9.81156
1 16.5874 20.4756 10.646
1 17.3811 19.6819 10.646
1 17.3933 20.4652 9.83973
1 16.6052 19.664 9.85833
1 18.1748 20.4756 10.646
1 18.9685 19.6819 10.646
1 18.9729 20.4483 9.8514
1 18.1992 19.6755 9.84758
1 19.7622 20.4756 10.646
1 20.5559 19.6819 10.646
1 20.5497 20.4881 9.86461
1 19.7825 19.6813 9.8386
1 21.3496 20.4756 10.646
1 22.1433 19.6819 10.646
1 22.1618 20.4644 9.85685
1 21.3443 19.7017 9.84443
1 22.937 20.4756 10.646
1 23.7307 19.6819 10.646
1 23.7141 20.4677 9.83965
1 22.9376 19.7016 9.83708
1 24.5244 20.4756 10.646
1 25.3181 19.6819 10.646
1 25.3241 20.496 9.86803
1 24.5118 19.6973 9.85535
1 26.1118 20.4756 10.646
1 26.9055 19.6819 10.646
1 26.8986 20.4627 9.85711
1 26.1151 19.6602 9.889
1 27.6992 20.4756 10.646
1 28.4929 19.6819 10.646
1 28.5025 20.4801 9.85643
1 27.6804 19.6981 9.84727
1 29.2866 20.4756 10.646
1 0.08031 19.6819 10.646
1 0.0634901 20.4745 9.85632
1 29.3041 19.6665 9.84396
1 0.874011 20.4756 10.646
1 1.66771 19.6819 10.646
1 1.65472 20.4845 9.86686
1 0.878312 19.6919 9.86446
1 2.46141 20.4756 10.646
1 3.25511 19.6819 10.646
1 3.24791 20.4571 9.83556
1 2.4489 19.666 9.84444
1 4.04881 20.4756 10.646
1 4.84251 19.6819 10.646
1 4.85043 20.4544 9.85687
1 4.07948 19.6687 9.86404
1 5.63621 20.4756 10.646
1 6.42991 19.6819 10.646
1 6.42164 20.4675 9.84777
1 5.64402 19.6901 9.83211
1 7.22361 20.4756 10.646
1 8.01732 19.6819 10.646
1 8.01311 20.4694 9.85739
1 7.24302 19.693 9.858
1 8.81102 20.4756 10.646
1 9.60472 19.6819 10.646
1 9.6126 20.4719 9.86502
1 8.79849 19.6913 9.87491
1 10.3984 20.4756 10.646
1 11.1921 19.6819 10.646
1 11.1978 20.4705 9.87677
1 10.4004 19.6734 9.84235
1 11.9858 20.4756 10.646
1 12.7795 19.6819 10.646
1 12.7751 20.474 9.87074
1 11.9921 19.6904 9.87261
1 13.5732 20.4756 10.646
1 14.3669 19.6819 10.646
1 14.3213 20.4785 9.8197
1 13.5407 19.6896 9.86848
1 15 18.8882 10.646
1 15.7937 18.0945 10.646
1 15.8226 18.8924 9.82172
1 15.0454 18.0872 9.81396
1 16.5874 18.8882 10.646
1 17.3811 18.0945 10.646
1 17.3935 18.8774 9.85703
1 16.6065 18.1022 9.82651
1 18.1748 18.8882 10.646
1 18.9685 18.0945 10.646
1 18.9632 18.8878 9.82842
1 18.1811 18.124 9.83036
1 19.7622 18.8882 10.646
1 20.5559 18.0945 10.646
1 20.5281 18.8863 9.87138
1 19.752 18.0843 9.87034
1 21.3496 18.8882 10.646
1 22.1433 18.0945 10.646
1 22.114 18.8964 9.84196
1 21.3512 18.0817 9.84835
1 22.937 18.8882 10.646
1 23.7307 18.0945 10.646
1 23.7233 18.8792 9.85823
1 22.8967 18.0906 9.85204
1 24.5244 18.8882 10.646
1 25.3181 18.0945 10.646
1 25.3101 18.8942 9.84617
1 24.5107 18.095 9.8492
1 26.1118 18.8882 10.646
1 26.9055 18.0945 10.646
1 26.9144 18.9023 9.8585
1 26.1054 18.0839 9.84524
1 27.6992 18.8882 10.646
1 28.4929 18.0945 10.646
1 28.4826 18.8777 9.85498
1 27.7009 18.102 9.84464
1 29.2866 18.8882 10.646
1 0.08031 18.0945 10.646
1 0.0902078 18.8778 9.81973
1 29.2913 18.0882 9.86798
1 0.874011 18.8882 10.646
1 1.66771 18.0945 10.646
1 1.65462 18.8851 9.83866
1 0.860132 18.0978 9.84282
1 2.46141 18.8882 10.646
1 3.25511 18.0945 10.646
1 3.24956 18.8878 9.83706
1 2.46354 18.1188 9.84679
1 4.04881 18.8882 10.646
1 4.84251 18.0945 10.646
1 4.83879 18.8892 9.86537
1 4.05241 18.1214 9.85897
1 5.63621 18.8882 10.646
1 6.42991 18.0945 10.646
1 6.41316 18.8932 9.85814
1 5.64497 18.0982 9.84824
1 7.22361 18.8882 10.646
1 8.01732 18.0945 10.646
1 8.02298 18.9048 9.8599
1 7.23482 18.1185 9.86202
1 8.81102 18.8882 10.646
1 9.60472 18.0945 10.646
1 9.57032 18.8998 9.86214
1 8.81654 18.0893 9.86352
1 10.3984 18.8882 10.646
1 11.1921 18.0945 10.646
1 11.1873 18.8893 9.8747
1 10.4043 18.1182 9.83907
1 11.9858 18.8882 10.646
1 12.7795 18.0945 10.646
1 12.7764 18.8684 9.8683
1 11.9786 18.1037 9.8536
1 13.5732 18.8882 10.646
1 14.3669 18.0945 10.646
1 14.3103 18.8941 9.80711
1 13.527 18.088 9.85607
1 15 17.3008 10.646
1 15.7937 16.5071 10.646
1 15.8312 17.3374 9.85988
1 15.0767 16.5119 9.81312
1 16.5874 17.3008 10.646
1 17.3811 16.5071 10.646
1 17.3817 17.2914 9.86987
1 16.5998 16.5103 9.85393
1 18.1748 17.3008 10.646
1 18.9685 16.5071 10.646
1 18.9655 17.2837 9.8449
1 18.1704 16.4793 9.85559
1 19.7622 17.3008 10.646
1 20.5559 16.5071 10.646
1 20.5344 17.3139 9.86025
1 19.7581 16.5079 9.84778
1 21.3496 17.3008 10.646
1 22.1433 16.5071 10.646
1 22.1402 17.3008 9.85508
1 21.3477 16.5401 9.87382
1 22.937 17.3008 10.646
1 23.7307 16.5071 10.646
1 23.7077 17.2828 9.858
1 22.9446 16.506 9.84192
1 24.5244 17.3008 10.646
1 25.3181 16.5071 10.646
1 25.3181 17.3031 9.8746
1 24.5264 16.528 9.84289
1 26.1118 17.3008 10.646
1 26.9055 16.5071 10.646
1 26.9143 17.2764 9.84521
1 26.111 16.4839 9.85525
1 27.6992 17.3008 10.646
1 28.4929 16.5071 10.646
1 28.5045 17.3076 9.8688
1 27.6976 16.5097 9.85055
1 29.2866 17.3008 10.646
1 0.08031 16.5071 10.646
1 0.0859646 17.2859 9.83968
1 29.2758 16.4982 9.85289
1 0.874011 17.3008 10.646
1 1.66771 16.5071 10.646
1 1.70408 17.3348 9.85408
1 0.883567 16.5331 9.8774
1 2.46141 17.3008 10.646
1 3.25511 16.5071 10.646
1 3.23015 17.3078 9.85241
1 2.45194 16.4829 9.83834
1 4.04881 17.3008 10.646
1 4.84251 16.5071 10.646
1 4.82329 17.3066 9.86392
1 4.02883 16.5077 9.85948
1 5.63621 17.3008 10.646
1 6.42991 16.5071 10.646
1 6.4478 17.3301 9.85508
1 5.62248 16.525 9.86162
1 7.22361 17.3008 10.646
1 8.01732 16.5071 10.646
1 8.00699 17.3228 9.83711
1 7.23958 16.5181 9.86983
1 8.81102 17.3008 10.646
1 9.60472 16.5071 10.646
1 9.59753 17.3076 9.85972
1 8.80477 16.5278 9.8736
1 10.3984 17.3008 10.646
1 11.1921 16.5071 10.646
1 11.1908 17.3229 9.86957
1 10.3795 16.5399 9.84584
1 11.9858 17.3008 10.646
1 12.7795 16.5071 10.646
1 12.7623 17.2993 9.83234
1 11.9538 16.5201 9.83556
1 13.5732 17.3008 10.646
1 14.3669 16.5071 10.646
1 14.2954 17.3114 9.81961
1 13.5569 16.5002 9.86698
1 15 15.7134 10.646
1 15.7937 14.9197 10.646
1 15.8106 15.6988 9.84592
1 15.0585 14.9114 9.81942
1 16.5874 15.7134 10.646
1 17.3811 14.9197 10.646
1 17.3955 15.7235 9.86706
1 16.6143 14.948 9.86648
1 18.1748 15.7134 10.646
1 18.9685 14.9197 10.646
1 19.008 15.7257 9.84081
1 18.2051 14.9208 9.86314
1 19.7622 15.7134 10.646
1 20.5559 14.9197 10.646
1 20.546 15.7322 9.86384
1 19.7714 14.9211 9.88436
1 21.3496 15.7134 10.646
1 22.1433 14.9197 10.646
1 22.1358 15.7135 9.85725
1 21.339 14.9254 9.86333
1 22.937 15.7134 10.646
1 23.7307 14.9197 10.646
1 23.7322 15.7055 9.8713
1 22.9286 14.8965 9.88625
1 24.5244 15.7134 10.646
1 25.3181 14.9197 10.646
1 25.2959 15.7008 9.8769
1 24.5147 14.914 9.8579
1 26.1118 15.7134 10.646
1 26.9055 14.9197 10.646
1 26.8951 15.7079 9.8373
1 26.1515 14.8985 9.85584
1 27.6992 15.7134 10.646
1 28.4929 14.9197 10.646
1 28.5166 15.6823 9.83722
1 27.7041 14.9153 9.84587
1 29.2866 15.7134 10.646
1 0.08031 14.9197 10.646
1 0.0921743 15.7206 9.85505
1 29.2871 14.9248 9.84893
1 0.874011 15.7134 10.646
1 1.66771 14.9197 10.646
1 1.66405 15.747 9.85007
1 0.874374 14.9332 9.8404
1 2.46141 15.7134 10.646
1 3.25511 14.9197 10.646
1 3.26044 15.6918 9.85332
1 2.4484 14.9284 9.86117
1 4.04881 15.7134 10.646
1 4.84251 14.9197 10.646
1 4.83623 15.712 9.8457
1 4.04448 14.9079 9.86375
1 5.63621 15.7134 10.646
1 6.42991 14.9197 10.646
1 6.42369 15.7228 9.85124
1 5.61313 14.9081 9.84747
1 7.22361 15.7134 10.646
1 8.01732 14.9197 10.646
1 8.00688 15.7257 9.84425
1 7.21844 14.9079 9.8605
1 8.81102 15.7134 10.646
1 9.60472 14.9197 10.646
1 9.58147 15.7252 9.82637
1 8.80632 14.9147 9.83689
1 10.3984 15.7134 10.646
1 11.1921 14.9197 10.646
1 11.1584 15.7274 9.86618
1 10.4117 14.9126 9.84696
1 11.9858 15.7134 10.646
1 12.7795 14.9197 10.646
1 12.7387 15.719 9.86383
1 11.9584 14.9199 9.87217
1 13.5732 15.7134 10.646
1 14.3669 14.9197 10.646
1 14.2929 15.6841 9.82002
1 13.56 14.8819 9.8647
1 15 14.126 10.646
1 15.7937 13.3323 10.646
1 15.8327 14.119 9.82685
1 15.0914 13.3467 9.80361
1 16.5874 14.126 10.646
1 17.3811 13.3323 10.646
1 17.3637 14.1335 9.86202
1 16.5946 13.3268 9.86408
1 18.1748 14.126 10.646
1 18.9685 13.3323 10.646
1 18.9577 14.1327 9.84812
1 18.1617 13.3488 9.84738
1 19.7622 14.126 10.646
1 20.5559 13.3323 10.646
1 20.5379 14.1125 9.86502
1 19.7666 13.3145 9.84388
1 21.3496 14.126 10.646
1 22.1433 13.3323 10.646
1 22.1246 14.146 9.85365
1 21.3677 13.3294 9.86351
1 22.937 14.126 10.646
1 23.7307 13.3323 10.646
1 23.7368 14.1393 9.88286
1 22.9308 13.3504 9.84954
1 24.5244 14.126 10.646
1 25.3181 13.3323 10.646
1 25.3304 14.1196 9.8757
1 24.5201 13.3566 9.83627
1 26.1118 14.126 10.646
1 26.9055 13.3323 10.646
1 26.9153 14.1234 9.82106
1 26.0953 13.315 9.84838
1 27.6992 14.126 10.646
1 28.4929 13.3323 10.646
1 28.4863 14.1223 9.85548
1 27.6962 13.315 9.83771
1 29.2866 14.126 10.646
1 0.08031 13.3323 10.646
1 0.0717329 14.135 9.86086
1 29.2867 13.3351 9.83544
1 0.874011 14.126 10.646
1 1.66771 13.3323 10.646
1 1.65958 14.1286 9.83672
1 0.886198 13.3371 9.87048
1 2.46141 14.126 10.646
1 3.25511 13.3323 10.646
1 3.2332 14.1244 9.83913
1 2.44863 13.3475 9.86007
1 4.04881 14.126 10.646
1 4.84251 13.3323 10.646
1 4.81939 14.1168 9.85363
1 4.04603 13.3611 9.84798
1 5.63621 14.126 10.646
1 6.42991 13.3323 10.646
1 6.43928 14.1129 9.86072
1 5.62922 13.3351 9.84833
1 7.22361 14.126 10.646
1 8.01732 13.3323 10.646
1 8.00915 14.1069 9.85033
1 7.21195 13.3429 9.84487
1 8.81102 14.126 10.646
1 9.60472 13.3323 10.646
1 9.59156 14.1178 9.84916
1 8.79335 13.3316 9.85994
1 10.3984 14.126 10.646
1 11.1921 13.3323 10.646
1 11.1905 14.1182 9.83675
1 10.4089 13.3318 9.85555
1 11.9858 14.126 10.646
1 12.7795 13.3323 10.646
1 12.7256 14.1241 9.83966
1 11.9568 13.317 9.878
1 13.5732 14.126 10.646
1 14.3669 13.3323 10.646
1 14.3117 14.1359 9.82415
1 13.553 13.3415 9.85153
1 15 12.5386 10.646
1 15.7937 11.7449 10.646
1 15.8312 12.5395 9.85099
1 15.0616 11.7254 9.83048
1 16.5874 12.5386 10.646
1 17.3811 11.7449 10.646
1 17.4202 12.5424 9.85607
1 16.5866 11.7262 9.86247
1 18.1748 12.5386 10.646
1 18.9685 11.7449 10.646
1 18.9888 12.5323 9.84524
1 18.1849 11.7561 9.85089
1 19.7622 12.5386 10.646
1 20.5559 11.7449 10.646
1 20.5684 12.5287 9.83728
1 19.7755 11.7439 9.84517
1 21.3496 12.5386 10.646
1 22.1433 11.7449 10.646
1 22.1476 12.5118 9.85774
1 21.3474 11.7319 9.8562
1 22.937 12.5386 10.646
1 23.7307 11.7449 10.646
1 23.7149 12.5454 9.85583
1 22.9525 11.7507 9.8383
1 24.5244 12.5386 10.646
1 25.3181 11.7449 10.646
1 25.2842 12.5549 9.8703
1 24.5252 11.7686 9.84433
1 26.1118 12.5386 10.646
1 26.9055 11.7449 10.646
1 26.8922 12.5435 9.83126
1 26.0896 11.7446 9.84943
1 27.6992 12.5386 10.646
1 28.4929 11.7449 10.646
1 28.4845 12.5274 9.83331
1 27.6985 11.7593 9.85154
1 29.2866 12.5386 10.646
1 0.08031 11.7449 10.646
1 0.0867881 12.5362 9.85417
1 29.2732 11.7722 9.85199
1 0.874011 12.5386 10.646
1 1.66771 11.7449 10.646
1 1.66769 12.5215 9.85101
1 0.858926 11.7519 9.84805
1 2.46141 12.5386 10.646
1 3.25511 11.7449 10.646
1 3.26824 12.5358 9.82326
1 2.43741 11.7524 9.85504
1 4.04881 12.5386 10.646
1 4.84251 11.7449 10.646
1 4.82951 12.5375 9.84441
1 4.03792 11.7319 9.84982
1 5.63621 12.5386 10.646
1 6.42991 11.7449 10.646
1 6.41341 12.5221 9.86171
1 5.62471 11.7336 9.84809
1 7.22361 12.5386 10.646
1 8.01732 11.7449 10.646
1 8.02955 12.5302 9.85137
1 7.22532 11.7473 9.84943
1 8.81102 12.5386 10.646
1 9.60472 11.7449 10.646
1 9.62552 12.5403 9.84136
1 8.81787 11.7294 9.8612
1 10.3984 12.5386 10.646
1 11.1921 11.7449 10.646
1 11.1773 12.533 9.85333
1 10.3893 11.7427 9.87191
1 11.9858 12.5386 10.646
1 12.7795 11.7449 10.646
1 12.7893 12.5317 9.88268
1 11.959 11.754 9.87734
1 13.5732 12.5386 10.646
1 14.3669 11.7449 10.646
1 14.3163 12.5418 9.81042
1 13.5682 11.7321 9.84347
1 15 10.9512 10.646
1 15.7937 10.1575 10.646
1 15.7992 10.9401 9.837
1 15.049 10.1425 9.82704
1 16.5874 10.9512 10.646
1 17.3811 10.1575 10.646
1 17.4182 10.9664 9.86672
1 16.6149 10.1376 9.83314
1 18.1748 10.9512 10.646
1 18.9685 10.1575 10.646
1 18.9593 10.9463 9.86496
1 18.1989 10.1693 9.84791
1 19.7622 10.9512 10.646
1 20.5559 10.1575 10.646
1 20.553 10.9526 9.86332
1 19.7766 10.1684 9.84969
1 21.3496 10.9512 10.646
1 22.1433 10.1575 10.646
1 22.1577 10.9654 9.85609
1 21.3676 10.1746 9.84286
1 22.937 10.9512 10.646
1 23.7307 10.1575 10.646
1 23.7265 10.9595 9.85666
1 22.9432 10.174 9.8443
1 24.5244 10.9512 10.646
1 25.3181 10.1575 10.646
1 25.3171 10.9535 9.87735
1 24.5353 10.1633 9.87005
1 26.1118 10.9512 10.646
1 26.9055 10.1575 10.646
1 26.9193 10.9684 9.88555
1 26.1127 10.1594 9.84623
1 27.6992 10.9512 10.646
1 28.4929 10.1575 10.646
1 28.4902 10.9475 9.83053
1 27.6998 10.165 9.84178
1 29.2866 10.9512 10.646
1 0.08031 10.1575 10.646
1 0.0878899 10.949 9.85429
1 29.2865 10.1458 9.85241
1 0.874011 10.9512 10.646
1 1.66771 10.1575 10.646
1 1.64824 10.9191 9.86054
1 0.841582 10.1599 9.84629
1 2.46141 10.9512 10.646
1 3.25511 10.1575 10.646
1 3.24028 10.9351 9.85909
1 2.45304 10.1384 9.84964
1 4.04881 10.9512 10.646
1 4.84251 10.1575 10.646
1 4.84779 10.9112 9.85147
1 4.0257 10.1465 9.84723
1 5.63621 10.9512 10.646
1 6.42991 10.1575 10.646
1 6.43402 10.9446 9.86313
1 5.65351 10.1536 9.85592
1 7.22361 10.9512 10.646
1 8.01732 10.1575 10.646
1 8.01788 10.9267 9.87305
1 7.2032 10.1448 9.84905
1 8.81102 10.9512 10.646
1 9.60472 10.1575 10.646
1 9.59364 10.935 9.83507
1 8.80934 10.1417 9.83565
1 10.3984 10.9512 10.646
1 11.1921 10.1575 10.646
1 11.2022 10.9601 9.86172
1 10.3877 10.1686 9.83728
1 11.9858 10.9512 10.646
1 12.7795 10.1575 10.646
1 12.7645 10.9405 9.83662
1 11.9644 10.1289 9.85653
1 13.5732 10.9512 10.646
1 14.3669 10.1575 10.646
1 14.3063 10.9422 9.83793
1 13.5428 10.1681 9.82885
1 15 9.36379 10.646
1 15.7937 8.57009 10.646
1 15.831 9.33105 9.83657
1 15.074 8.57469 9.80755
1 16.5874 9.36379 10.646
1 17.3811 8.57009 10.646
1 17.3953 9.35707 9.85102
1 16.616 8.57003 9.879
1 18.1748 9.36379 10.646
1 18.9685 8.57009 10.646
1 19.007 9.36907 9.86876
1 18.2089 8.57268 9.84155
1 19.7622 9.36379 10.646
1 20.5559 8.57009 10.646
1 20.5741 9.36831 9.85558
1 19.7877 8.56384 9.8561
1 21.3496 9.36379 10.646
1 22.1433 8.57009 10.646
1 22.1337 9.36941 9.85184
1 21.3629 8.57848 9.86351
1 22.937 9.36379 10.646
1 23.7307 8.57009 10.646
1 23.7422 9.3691 9.86936
1 22.9484 8.55497 9.87195
1 24.5244 9.36379 10.646
1 25.3181 8.57009 10.646
1 25.3089 9.36996 9.85666
1 24.5361 8.56255 9.85331
1 26.1118 9.36379 10.646
1 26.9055 8.57009 10.646
1 26.9012 9.37487 9.83628
1 26.1024 8.57509 9.85482
1 27.6992 9.36379 10.646
1 28.4929 8.57009 10.646
1 28.4854 9.38348 9.84226
1 27.7033 8.5734 9.85903
1 29.2866 9.36379 10.646
1 0.08031 8.57009 10.646
1 0.0861632 9.3389 9.85443
1 29.2967 8.58373 9.86912
1 0.874011 9.36379 10.646
1 1.66771 8.57009 10.646
1 1.65339 9.36355 9.84418
1 0.882356 8.56276 9.82924
1 2.46141 9.36379 10.646
1 3.25511 8.57009 10.646
1 3.24907 9.34851 9.79955
1 2.44515 8.55873 9.86111
1 4.04881 9.36379 10.646
1 4.84251 8.57009 10.646
1 4.83062 9.37317 9.84618
1 4.04885 8.5724 9.83143
1 5.63621 9.36379 10.646
1 6.42991 8.57009 10.646
1 6.41804 9.37224 9.86792
1 5.64119 8.56483 9.8447
1 7.22361 9.36379 10.646
1 8.01732 8.57009 10.646
1 8.02418 9.35209 9.84478
1 7.24435 8.59385 9.8441
1 8.81102 9.36379 10.646
1 9.60472 8.57009 10.646
1 9.58765 9.35401 9.86085
1 8.79898 8.55116 9.84107
1 10.3984 9.36379 10.646
1 11.1921 8.57009 10.646
1 11.1972 9.3576 9.86866
1 10.3748 8.57107 9.85259
1 11.9858 9.36379 10.646
1 12.7795 8.57009 10.646
1 12.7635 9.34695 9.83878
1 11.9663 8.59987 9.87821
1 13.5732 9.36379 10.646
1 14.3669 8.57009 10.646
1 14.2999 9.36162 9.83522
1 13.5546 8.58093 9.86625
1 15 7.77639 10.646
1 15.7937 6.98268 10.646
1 15.8217 7.77559 9.79961
1 15.0636 6.97149 9.8183
1 16.5874 7.77639 10.646
1 17.3811 6.98268 10.646
1 17.3901 7.7692 9.85375
1 16.61 6.99435 9.865
1 18.1748 7.77639 10.646
1 18.9685 6.98268 10.646
1 19.0116 7.78099 9.84624
1 18.2016 6.99488 9.86567
1 19.7622 7.77639 10.646
1 20.5559 6.98268 10.646
1 20.5443 7.78521 9.85674
1 19.7786 6.9949 9.84841
1 21.3496 7.77639 10.646
1 22.1433 6.98268 10.646
1 22.1436 7.76816 9.86763
1 21.3456 7.01395 9.85843
1 22.937 7.77639 10.646
1 23.7307 6.98268 10.646
1 23.7221 7.79159 9.85689
1 22.9453 6.97079 9.8606
1 24.5244 7.77639 10.646
1 25.3181 6.98268 10.646
1 25.3299 7.77686 9.84667
1 24.5584 6.97767 9.86479
1 26.1118 7.77639 10.646
1 26.9055 6.98268 10.646
1 26.8941 7.79172 9.8684
1 26.1194 6.96361 9.84651
1 27.6992 7.77639 10.646
1 28.4929 6.98268 10.646
1 28.4782 7.77835 9.8434
1 27.6908 6.98773 9.84532
1 29.2866 7.77639 10.646
1 0.08031 6.98268 10.646
1 0.0619922 7.78226 9.85923
1 29.2909 6.99303 9.84455
1 0.874011 7.77639 10.646
1 1.66771 6.98268 10.646
1 1.64699 7.76961 9.83411
1 0.890476 7.00551 9.86904
1 2.46141 7.77639 10.646
1 3.25511 6.98268 10.646
1 3.26179 7.76365 9.85513
1 2.45927 7.01339 9.86289
1 4.04881 7.77639 10.646
1 4.84251 6.98268 10.646
1 4.85703 7.77812 9.81922
1 4.05718 6.99475 9.83375
1 5.63621 7.77639 10.646
1 6.42991 6.98268 10.646
1 6.42664 7.76327 9.86438
1 5.64667 6.98485 9.81846
1 7.22361 7.77639 10.646
1 8.01732 6.98268 10.646
1 8.02587 7.77671 9.85055
1 7.21325 6.98171 9.83594
1 8.81102 7.77639 10.646
1 9.60472 6.98268 10.646
1 9.59961 7.79024 9.85024
1 8.81077 7.0009 9.85385
1 10.3984 7.77639 10.646
1 11.1921 6.98268 10.646
1 11.1828 7.79768 9.85996
1 10.399 6.98741 9.86669
1 11.9858 7.77639 10.646
1 12.7795 6.98268 10.646
1 12.746 7.7713 9.87277
1 11.9674 6.98025 9.84989
1 13.5732 7.77639 10.646
1 14.3669 6.98268 10.646
1 14.2976 7.77557 9.83064
1 13.5181 6.95298 9.81898
1 15 6.18898 10.646
1 15.7937 5.39528 10.646
1 15.8182 6.18719 9.82053
1 15.0762 5.42057 9.82959
1 16.5874 6.18898 10.646
1 17.3811 5.39528 10.646
1 17.3932 6.19635 9.87418
1 16.593 5.38112 9.84858
1 18.1748 6.18898 10.646
1 18.9685 5.39528 10.646
1 18.985 6.20015 9.83167
1 18.1902 5.39598 9.8553
1 19.7622 6.18898 10.646
1 20.5559 5.39528 10.646
1 20.5602 6.19281 9.84248
1 19.7712 5.39398 9.86007
1 21.3496 6.18898 10.646
1 22.1433 5.39528 10.646
1 22.1384 6.20894 9.851
1 21.373 5.40481 9.8854
1 22.937 6.18898 10.646
1 23.7307 5.39528 10.646
1 23.7534 6.18859 9.84547
1 22.9314 5.41584 9.86794
1 24.5244 6.18898 10.646
1 25.3181 5.39528 10.646
1 25.3047 6.1856 9.83295
1 24.5202 5.37838 9.85107
1 26.1118 6.18898 10.646
1 26.9055 5.39528 10.646
1 26.8964 6.20489 9.8413
1 26.1016 5.4002 9.82277
1 27.6992 6.18898 10.646
1 28.4929 5.39528 10.646
1 28.4938 6.20836 9.86942
1 27.7015 5.40751 9.87039
1 29.2866 6.18898 10.646
1 0.08031 5.39528 10.646
1 0.0830522 6.19312 9.85465
1 29.2884 5.41249 9.86252
1 0.874011 6.18898 10.646
1 1.66771 5.39528 10.646
1 1.68324 6.19766 9.86108