9376
Atoms. Timestep: 4000000
1 0.00375 3.55271e-15 10.6562
1 0.797451 29.2063 10.6562
1 0.821039 29.9303 9.81097
1 0.0694122 29.1886 9.8084
1 1.59115 3.55271e-15 10.6562
1 2.38485 29.2063 10.6562
1 2.39017 29.9106 9.8139
1 1.60115 29.175 9.89393
1 3.17855 3.55271e-15 10.6562
1 3.97225 29.2063 10.6562
1 3.98736 29.9178 9.79997
1 3.15207 29.195 9.84919
1 4.76595 3.55271e-15 10.6562
1 5.55965 29.2063 10.6562
1 5.5617 29.9236 9.83591
1 4.77718 29.1941 9.84547
1 6.35335 3.55271e-15 10.6562
1 7.14705 29.2063 10.6562
1 7.15108 29.9305 9.82263
1 6.35433 29.1658 9.83619
1 7.94076 3.55271e-15 10.6562
1 8.73446 29.2063 10.6562
1 8.72145 29.9397 9.83443
1 7.92899 29.1597 9.86706
1 9.52816 3.55271e-15 10.6562
1 10.3219 29.2063 10.6562
1 10.3044 29.9313 9.80242
1 9.50785 29.189 9.86452
1 11.1156 3.55271e-15 10.6562
1 11.9093 29.2063 10.6562
1 11.8933 29.9379 9.82238
1 11.0773 29.1761 9.85326
1 12.703 3.55271e-15 10.6562
1 13.4967 29.2063 10.6562
1 13.4968 29.949 9.80383
1 12.6925 29.1929 9.85687
1 14.2904 3.55271e-15 10.6562
1 15.0841 29.2063 10.6562
1 15.0958 29.9398 9.85084
1 14.2877 29.1796 9.85673
1 15.8778 3.55271e-15 10.6562
1 16.6715 29.2063 10.6562
1 16.6498 29.9263 9.84603
1 15.8678 29.149 9.8197
1 17.4652 3.55271e-15 10.6562
1 18.2589 29.2063 10.6562
1 18.2432 29.9323 9.83796
1 17.4592 29.1662 9.86959
1 19.0526 3.55271e-15 10.6562
1 19.8463 29.2063 10.6562
1 19.8369 29.9417 9.83124
1 19.0366 29.1848 9.85569
1 20.64 3.55271e-15 10.6562
1 21.4337 29.2063 10.6562
1 21.4381 29.9478 9.8518
1 20.6515 29.1872 9.86698
1 22.2274 3.55271e-15 10.6562
1 23.0211 29.2063 10.6562
1 23.0081 29.9283 9.8454
1 22.2245 29.1881 9.84996
1 23.8148 3.55271e-15 10.6562
1 24.6085 29.2063 10.6562
1 24.6147 29.9217 9.83288
1 23.8101 29.1816 9.85035
1 25.4022 3.55271e-15 10.6562
1 26.1959 29.2063 10.6562
1 26.1936 29.9327 9.81225
1 25.3668 29.1566 9.84985
1 26.9896 3.55271e-15 10.6562
1 27.7833 29.2063 10.6562
1 27.7762 29.9078 9.81905
1 26.9697 29.1785 9.87204
1 28.577 3.55271e-15 10.6562
1 29.3707 29.2063 10.6562
1 29.322 29.9441 9.78714
1 28.5562 29.1994 9.82537
1 0.00375 28.4126 10.6562
1 0.797451 27.6189 10.6562
1 0.819349 28.3934 9.88703
1 0.0831514 27.5957 9.82823
1 1.59115 28.4126 10.6562
1 2.38485 27.6189 10.6562
1 2.401 28.3971 9.86882
1 1.61221 27.6297 9.88037
1 3.17855 28.4126 10.6562
1 3.97225 27.6189 10.6562
1 3.96506 28.3823 9.84684
1 3.21057 27.6215 9.84815
1 4.76595 28.4126 10.6562
1 5.55965 27.6189 10.6562
1 5.54543 28.3959 9.88086
1 4.78083 27.5906 9.88134
1 6.35335 28.4126 10.6562
1 7.14705 27.6189 10.6562
1 7.14469 28.3995 9.85235
1 6.35751 27.6216 9.86783
1 7.94076 28.4126 10.6562
1 8.73446 27.6189 10.6562
1 8.72616 28.401 9.86473
1 7.94688 27.6291 9.86989
1 9.52816 28.4126 10.6562
1 10.3219 27.6189 10.6562
1 10.3137 28.3882 9.85285
1 9.53984 27.621 9.84248
1 11.1156 28.4126 10.6562
1 11.9093 27.6189 10.6562
1 11.9006 28.4075 9.85283
1 11.1292 27.5891 9.89901
1 12.703 28.4126 10.6562
1 13.4967 27.6189 10.6562
1 13.4869 28.4 9.87022
1 12.6921 27.6027 9.85528
1 14.2904 28.4126 10.6562
1 15.0841 27.6189 10.6562
1 15.0793 28.4022 9.85538
1 14.3081 27.6057 9.87758
1 15.8778 28.4126 10.6562
1 16.6715 27.6189 10.6562
1 16.6573 28.3999 9.87239
1 15.885 27.613 9.86678
1 17.4652 28.4126 10.6562
1 18.2589 27.6189 10.6562
1 18.2561 28.3832 9.86891
1 17.4689 27.6024 9.86525
1 19.0526 28.4126 10.6562
1 19.8463 27.6189 10.6562
1 19.8363 28.3992 9.85682
1 19.0513 27.5766 9.8733
1 20.64 28.4126 10.6562
1 21.4337 27.6189 10.6562
1 21.4288 28.379 9.85903
1 20.6295 27.5855 9.87578
1 22.2274 28.4126 10.6562
1 23.0211 27.6189 10.6562
1 23.0115 28.3758 9.84668
1 22.2168 27.6073 9.86502
1 23.8148 28.4126 10.6562
1 24.6085 27.6189 10.6562
1 24.5925 28.4126 9.86704
1 23.8252 27.6125 9.87823
1 25.4022 28.4126 10.6562
1 26.1959 27.6189 10.6562
1 26.1581 28.392 9.8935
1 25.3853 27.642 9.86273
1 26.9896 28.4126 10.6562
1 27.7833 27.6189 10.6562
1 27.7896 28.4235 9.84325
1 26.9585 27.6236 9.8582
1 28.577 28.4126 10.6562
1 29.3707 27.6189 10.6562
1 29.328 28.3822 9.81414
1 28.5189 27.5912 9.83967
1 0.00375 26.8252 10.6562
1 0.797451 26.0315 10.6562
1 0.815152 26.8589 9.84311
1 0.0552126 26.0218 9.84592
1 1.59115 26.8252 10.6562
1 2.38485 26.0315 10.6562
1 2.37758 26.8454 9.88112
1 1.58851 26.0646 9.87632
1 3.17855 26.8252 10.6562
1 3.97225 26.0315 10.6562
1 3.98333 26.816 9.87462
1 3.19771 26.027 9.86565
1 4.76595 26.8252 10.6562
1 5.55965 26.0315 10.6562
1 5.59263 26.8207 9.84716
1 4.75996 26.0044 9.83376
1 6.35335 26.8252 10.6562
1 7.14705 26.0315 10.6562
1 7.15473 26.8465 9.86943
1 6.32809 26.0382 9.8479
1 7.94076 26.8252 10.6562
1 8.73446 26.0315 10.6562
1 8.75612 26.834 9.86103
1 7.93272 26.05 9.85242
1 9.52816 26.8252 10.6562
1 10.3219 26.0315 10.6562
1 10.3106 26.8198 9.84211
1 9.5384 26.0199 9.86466
1 11.1156 26.8252 10.6562
1 11.9093 26.0315 10.6562
1 11.9065 26.8134 9.86868
1 11.1202 26.0273 9.84859
1 12.703 26.8252 10.6562
1 13.4967 26.0315 10.6562
1 13.4908 26.8289 9.86728
1 12.7139 26.0071 9.87488
1 14.2904 26.8252 10.6562
1 15.0841 26.0315 10.6562
1 15.1077 26.8222 9.86319
1 14.3044 26.0282 9.8601
1 15.8778 26.8252 10.6562
1 16.6715 26.0315 10.6562
1 16.6891 26.8292 9.87058
1 15.8881 26.0218 9.84837
1 17.4652 26.8252 10.6562
1 18.2589 26.0315 10.6562
1 18.2646 26.8044 9.8744
1 17.4708 25.9968 9.89064
1 19.0526 26.8252 10.6562
1 19.8463 26.0315 10.6562
1 19.8238 26.8072 9.87369
1 19.0348 26.0324 9.88589
1 20.64 26.8252 10.6562
1 21.4337 26.0315 10.6562
1 21.4316 26.8157 9.8673
1 20.6496 26.0245 9.86833
1 22.2274 26.8252 10.6562
1 23.0211 26.0315 10.6562
1 23.015 26.8085 9.89231
1 22.2466 26.0203 9.8667
1 23.8148 26.8252 10.6562
1 24.6085 26.0315 10.6562
1 24.5948 26.8105 9.88704
1 23.82 26.0233 9.88155
1 25.4022 26.8252 10.6562
1 26.1959 26.0315 10.6562
1 26.1842 26.8118 9.86919
1 25.405 26.0371 9.9
1 26.9896 26.8252 10.6562
1 27.7833 26.0315 10.6562
1 27.7503 26.7875 9.88124
1 26.9714 26.0332 9.85183
1 28.577 26.8252 10.6562
1 29.3707 26.0315 10.6562
1 29.3038 26.8042 9.82523
1 28.5295 26.0328 9.87505
1 0.00375 25.2378 10.6562
1 0.797451 24.4441 10.6562
1 0.813281 25.2514 9.85494
1 0.0537797 24.423 9.833
1 1.59115 25.2378 10.6562
1 2.38485 24.4441 10.6562
1 2.40898 25.2368 9.86134
1 1.61164 24.4302 9.86347
1 3.17855 25.2378 10.6562
1 3.97225 24.4441 10.6562
1 3.98222 25.2532 9.86057
1 3.20638 24.4481 9.87495
1 4.76595 25.2378 10.6562
1 5.55965 24.4441 10.6562
1 5.55726 25.2351 9.86661
1 4.7578 24.4524 9.87834
1 6.35335 25.2378 10.6562
1 7.14705 24.4441 10.6562
1 7.15842 25.2579 9.87044
1 6.35413 24.4387 9.88007
1 7.94076 25.2378 10.6562
1 8.73446 24.4441 10.6562
1 8.74983 25.2471 9.84621
1 7.96435 24.4343 9.86181
1 9.52816 25.2378 10.6562
1 10.3219 24.4441 10.6562
1 10.3507 25.2341 9.86021
1 9.54641 24.45 9.85369
1 11.1156 25.2378 10.6562
1 11.9093 24.4441 10.6562
1 11.9136 25.2162 9.86161
1 11.106 24.4325 9.87041
1 12.703 25.2378 10.6562
1 13.4967 24.4441 10.6562
1 13.5145 25.2463 9.85495
1 12.7434 24.4153 9.85966
1 14.2904 25.2378 10.6562
1 15.0841 24.4441 10.6562
1 15.0839 25.2341 9.86465
1 14.2642 24.4481 9.8534
1 15.8778 25.2378 10.6562
1 16.6715 24.4441 10.6562
1 16.6482 25.2426 9.87322
1 15.8663 24.454 9.86289
1 17.4652 25.2378 10.6562
1 18.2589 24.4441 10.6562
1 18.2736 25.244 9.85949
1 17.4644 24.4526 9.87057
1 19.0526 25.2378 10.6562
1 19.8463 24.4441 10.6562
1 19.8116 25.2268 9.84443
1 19.0318 24.4269 9.8718
1 20.64 25.2378 10.6562
1 21.4337 24.4441 10.6562
1 21.4235 25.236 9.85916
1 20.6356 24.4507 9.85872
1 22.2274 25.2378 10.6562
1 23.0211 24.4441 10.6562
1 23.0325 25.2115 9.84888
1 22.2376 24.423 9.86805
1 23.8148 25.2378 10.6562
1 24.6085 24.4441 10.6562
1 24.6199 25.255 9.84994
1 23.8243 24.4379 9.85406
1 25.4022 25.2378 10.6562
1 26.1959 24.4441 10.6562
1 26.1878 25.2574 9.87143
1 25.4001 24.4737 9.84732
1 26.9896 25.2378 10.6562
1 27.7833 24.4441 10.6562
1 27.7595 25.2389 9.87111
1 26.9831 24.436 9.87056
1 28.577 25.2378 10.6562
1 29.3707 24.4441 10.6562
1 29.2958 25.2309 9.81858
1 28.5503 24.4296 9.83508
1 0.00375 23.6504 10.6562
1 0.797451 22.8567 10.6562
1 0.814621 23.6436 9.87364
1 0.0680214 22.8702 9.83608
1 1.59115 23.6504 10.6562
1 2.38485 22.8567 10.6562
1 2.41358 23.6399 9.87475
1 1.5969 22.8614 9.88017
1 3.17855 23.6504 10.6562
1 3.97225 22.8567 10.6562
1 3.97989 23.6717 9.85793
1 3.20259 22.8591 9.84525
1 4.76595 23.6504 10.6562
1 5.55965 22.8567 10.6562
1 5.54665 23.6744 9.88056
1 4.77765 22.8561 9.85487
1 6.35335 23.6504 10.6562
1 7.14705 22.8567 10.6562
1 7.13098 23.6442 9.85514
1 6.3772 22.8499 9.86533
1 7.94076 23.6504 10.6562
1 8.73446 22.8567 10.6562
1 8.75757 23.6353 9.85497
1 7.94836 22.8726 9.85239
1 9.52816 23.6504 10.6562
1 10.3219 22.8567 10.6562
1 10.3169 23.6365 9.86977
1 9.51672 22.8625 9.83448
1 11.1156 23.6504 10.6562
1 11.9093 22.8567 10.6562
1 11.9182 23.665 9.87225
1 11.1052 22.8672 9.86957
1 12.703 23.6504 10.6562
1 13.4967 22.8567 10.6562
1 13.5235 23.644 9.85012
1 12.7132 22.8502 9.85283
1 14.2904 23.6504 10.6562
1 15.0841 22.8567 10.6562
1 15.0851 23.6708 9.87885
1 14.2812 22.8594 9.85166
1 15.8778 23.6504 10.6562
1 16.6715 22.8567 10.6562
1 16.657 23.651 9.85537
1 15.8637 22.8523 9.86763
1 17.4652 23.6504 10.6562
1 18.2589 22.8567 10.6562
1 18.2339 23.6349 9.87129
1 17.4195 22.8418 9.85595
1 19.0526 23.6504 10.6562
1 19.8463 22.8567 10.6562
1 19.8413 23.6509 9.84488
1 19.0539 22.8555 9.87825
1 20.64 23.6504 10.6562
1 21.4337 22.8567 10.6562
1 21.4526 23.6409 9.8587
1 20.6242 22.8475 9.86714
1 22.2274 23.6504 10.6562
1 23.0211 22.8567 10.6562
1 23.0474 23.6569 9.85891
1 22.2168 22.8533 9.85218
1 23.8148 23.6504 10.6562
1 24.6085 22.8567 10.6562
1 24.6041 23.6433 9.85986
1 23.8319 22.858 9.87752
1 25.4022 23.6504 10.6562
1 26.1959 22.8567 10.6562
1 26.1836 23.6495 9.86233
1 25.3775 22.8367 9.88222
1 26.9896 23.6504 10.6562
1 27.7833 22.8567 10.6562
1 27.7565 23.6594 9.85428
1 26.9842 22.8485 9.90488
1 28.577 23.6504 10.6562
1 29.3707 22.8567 10.6562
1 29.3158 23.6473 9.84345
1 28.549 22.8544 9.883
1 0.00375 22.063 10.6562
1 0.797451 21.2693 10.6562
1 0.816799 22.0389 9.85707
1 0.0605647 21.2814 9.80656
1 1.59115 22.063 10.6562
1 2.38485 21.2693 10.6562
1 2.3883 22.0845 9.88854
1 1.61031 21.2781 9.84109
1 3.17855 22.063 10.6562
1 3.97225 21.2693 10.6562
1 3.98669 22.0762 9.88889
1 3.18094 21.2524 9.85574
1 4.76595 22.063 10.6562
1 5.55965 21.2693 10.6562
1 5.53762 22.0764 9.85943
1 4.77793 21.2693 9.87838
1 6.35335 22.063 10.6562
1 7.14705 21.2693 10.6562
1 7.16598 22.0575 9.87802
1 6.33406 21.2561 9.87476
1 7.94076 22.063 10.6562
1 8.73446 21.2693 10.6562
1 8.74773 22.0574 9.86541
1 7.95636 21.2532 9.84223
1 9.52816 22.063 10.6562
1 10.3219 21.2693 10.6562
1 10.3141 22.0554 9.84922
1 9.53879 21.2627 9.86684
1 11.1156 22.063 10.6562
1 11.9093 21.2693 10.6562
1 11.8859 22.0791 9.87509
1 11.1045 21.243 9.85158
1 12.703 22.063 10.6562
1 13.4967 21.2693 10.6562
1 13.5121 22.0737 9.82381
1 12.7039 21.2855 9.87911
1 14.2904 22.063 10.6562
1 15.0841 21.2693 10.6562
1 15.096 22.0412 9.86111
1 14.275 21.276 9.85548
1 15.8778 22.063 10.6562
1 16.6715 21.2693 10.6562
1 16.6364 22.0601 9.87606
1 15.8728 21.2671 9.85199
1 17.4652 22.063 10.6562
1 18.2589 21.2693 10.6562
1 18.2457 22.0618 9.88262
1 17.4562 21.2574 9.87468
1 19.0526 22.063 10.6562
1 19.8463 21.2693 10.6562
1 19.8575 22.0607 9.86631
1 19.0216 21.2694 9.86767
1 20.64 22.063 10.6562
1 21.4337 21.2693 10.6562
1 21.4307 22.0608 9.85641
1 20.6296 21.2288 9.87143
1 22.2274 22.063 10.6562
1 23.0211 21.2693 10.6562
1 23.0198 22.072 9.87266
1 22.23 21.2865 9.86163
1 23.8148 22.063 10.6562
1 24.6085 21.2693 10.6562
1 24.5961 22.0458 9.87486
1 23.8262 21.2989 9.8718
1 25.4022 22.063 10.6562
1 26.1959 21.2693 10.6562
1 26.1875 22.0471 9.8682
1 25.3874 21.2465 9.8444
1 26.9896 22.063 10.6562
1 27.7833 21.2693 10.6562
1 27.7772 22.0456 9.85714
1 26.96 21.2492 9.87572
1 28.577 22.063 10.6562
1 29.3707 21.2693 10.6562
1 29.3046 22.0573 9.8219
1 28.548 21.2615 9.86931
1 0.00375 20.4756 10.6562
1 0.797451 19.6819 10.6562
1 0.807134 20.4932 9.8646
1 0.0632313 19.7045 9.83667
1 1.59115 20.4756 10.6562
1 2.38485 19.6819 10.6562
1 2.40029 20.4574 9.85944
1 1.58702 19.6713 9.85701
1 3.17855 20.4756 10.6562
1 3.97225 19.6819 10.6562
1 3.98658 20.4464 9.87264
1 3.21629 19.6675 9.88865
1 4.76595 20.4756 10.6562
1 5.55965 19.6819 10.6562
1 5.55819 20.4621 9.85425
1 4.76321 19.6856 9.84973
1 6.35335 20.4756 10.6562
1 7.14705 19.6819 10.6562
1 7.14245 20.4648 9.88285
1 6.35942 19.6875 9.86393
1 7.94076 20.4756 10.6562
1 8.73446 19.6819 10.6562
1 8.75646 20.4723 9.87837
1 7.92833 19.6927 9.88497
1 9.52816 20.4756 10.6562
1 10.3219 19.6819 10.6562
1 10.3302 20.4707 9.85218
1 9.53468 19.6687 9.85413
1 11.1156 20.4756 10.6562
1 11.9093 19.6819 10.6562
1 11.8975 20.4792 9.87475
1 11.1217 19.6945 9.87871
1 12.703 20.4756 10.6562
1 13.4967 19.6819 10.6562
1 13.5242 20.4835 9.8453
1 12.6881 19.6996 9.8658
1 14.2904 20.4756 10.6562
1 15.0841 19.6819 10.6562
1 15.0941 20.4889 9.84814
1 14.277 19.7025 9.85176
1 15.8778 20.4756 10.6562
1 16.6715 19.6819 10.6562
1 16.6701 20.4675 9.84306
1 15.8515 19.6596 9.86542
1 17.4652 20.4756 10.6562
1 18.2589 19.6819 10.6562
1 18.2611 20.4617 9.86913
1 17.4632 19.6805 9.86299
1 19.0526 20.4756 10.6562
1 19.8463 19.6819 10.6562
1 19.8448 20.4815 9.87193
1 19.0569 19.6808 9.85134
1 20.64 20.4756 10.6562
1 21.4337 19.6819 10.6562
1 21.4484 20.4653 9.85842
1 20.6091 19.6978 9.8535
1 22.2274 20.4756 10.6562
1 23.0211 19.6819 10.6562
1 23.0061 20.4644 9.85388
1 22.2085 19.7036 9.84502
1 23.8148 20.4756 10.6562
1 24.6085 19.6819 10.6562
1 24.6092 20.4993 9.86782
1 23.8105 19.6978 9.85708
1 25.4022 20.4756 10.6562
1 26.1959 19.6819 10.6562
1 26.1709 20.4574 9.86012
1 25.3895 19.6627 9.87731
1 26.9896 20.4756 10.6562
1 27.7833 19.6819 10.6562
1 27.7608 20.4859 9.85476
1 26.9637 19.7006 9.86134
1 28.577 20.4756 10.6562
1 29.3707 19.6819 10.6562
1 29.2872 20.4813 9.82427
1 28.5483 19.6776 9.8454
1 0.00375 18.8882 10.6562
1 0.797451 18.0945 10.6562
1 0.812019 18.8963 9.84152
1 0.043951 18.1012 9.82831
1 1.59115 18.8882 10.6562
1 2.38485 18.0945 10.6562
1 2.40108 18.8877 9.87223
1 1.61225 18.1153 9.86252
1 3.17855 18.8882 10.6562
1 3.97225 18.0945 10.6562
1 3.97514 18.8891 9.87214
1 3.18714 18.1151 9.86733
1 4.76595 18.8882 10.6562
1 5.55965 18.0945 10.6562
1 5.55599 18.8935 9.86114
1 4.76932 18.0989 9.84634
1 6.35335 18.8882 10.6562
1 7.14705 18.0945 10.6562
1 7.14973 18.8972 9.86821
1 6.34777 18.11 9.85589
1 7.94076 18.8882 10.6562
1 8.73446 18.0945 10.6562
1 8.7257 18.8844 9.88402
1 7.94556 18.0864 9.872
1 9.52816 18.8882 10.6562
1 10.3219 18.0945 10.6562
1 10.3353 18.886 9.88163
1 9.54929 18.1114 9.87199
1 11.1156 18.8882 10.6562
1 11.9093 18.0945 10.6562
1 11.9232 18.8683 9.8729
1 11.1259 18.0977 9.86887
1 12.703 18.8882 10.6562
1 13.4967 18.0945 10.6562
1 13.5116 18.9052 9.84472
1 12.7018 18.0932 9.87379
1 14.2904 18.8882 10.6562
1 15.0841 18.0945 10.6562
1 15.0902 18.8912 9.85055
1 14.2812 18.0846 9.85476
1 15.8778 18.8882 10.6562
1 16.6715 18.0945 10.6562
1 16.6843 18.877 9.86484
1 15.8726 18.1075 9.83218
1 17.4652 18.8882 10.6562
1 18.2589 18.0945 10.6562
1 18.2718 18.8915 9.85069
1 17.464 18.1157 9.85756
1 19.0526 18.8882 10.6562
1 19.8463 18.0945 10.6562
1 19.8311 18.8862 9.87344
1 19.0474 18.0782 9.87042
1 20.64 18.8882 10.6562
1 21.4337 18.0945 10.6562
1 21.4124 18.8877 9.83955
1 20.6357 18.085 9.85268
1 22.2274 18.8882 10.6562
1 23.0211 18.0945 10.6562
1 23.0119 18.876 9.87167
1 22.1906 18.0871 9.84586
1 23.8148 18.8882 10.6562
1 24.6085 18.0945 10.6562
1 24.6158 18.8951 9.83131
1 23.8172 18.0929 9.86872
1 25.4022 18.8882 10.6562
1 26.1959 18.0945 10.6562
1 26.1855 18.9131 9.86968
1 25.3906 18.0911 9.85313
1 26.9896 18.8882 10.6562
1 27.7833 18.0945 10.6562
1 27.7627 18.8886 9.85977
1 26.977 18.1089 9.86502
1 28.577 18.8882 10.6562
1 29.3707 18.0945 10.6562
1 29.3245 18.8842 9.82607
1 28.5424 18.0997 9.88196
1 0.00375 17.3008 10.6562
1 0.797451 16.5071 10.6562
1 0.858302 17.3343 9.87174
1 0.075682 16.5249 9.85318
1 1.59115 17.3008 10.6562
1 2.38485 16.5071 10.6562
1 2.38748 17.3054 9.88225
1 1.59717 16.4844 9.85747
1 3.17855 17.3008 10.6562
1 3.97225 16.5071 10.6562
1 3.96034 17.3064 9.87359
1 3.18724 16.5056 9.8538
1 4.76595 17.3008 10.6562
1 5.55965 16.5071 10.6562
1 5.58523 17.3278 9.86231
1 4.74984 16.5212 9.86656
1 6.35335 17.3008 10.6562
1 7.14705 16.5071 10.6562
1 7.12848 17.315 9.8476
1 6.35947 16.5177 9.87271
1 7.94076 17.3008 10.6562
1 8.73446 16.5071 10.6562
1 8.743 17.3094 9.87455
1 7.93549 16.527 9.87676
1 9.52816 17.3008 10.6562
1 10.3219 16.5071 10.6562
1 10.3205 17.3181 9.87738
1 9.53092 16.5416 9.86929
1 11.1156 17.3008 10.6562
1 11.9093 16.5071 10.6562
1 11.91 17.2967 9.84346
1 11.0977 16.5202 9.85484
1 12.703 17.3008 10.6562
1 13.4967 16.5071 10.6562
1 13.496 17.3057 9.86972
1 12.7111 16.4985 9.87467
1 14.2904 17.3008 10.6562
1 15.0841 16.5071 10.6562
1 15.1018 17.3346 9.88416
1 14.3065 16.5083 9.87548
1 15.8778 17.3008 10.6562
1 16.6715 16.5071 10.6562
1 16.6602 17.2884 9.87685
1 15.8625 16.5081 9.85833
1 17.4652 17.3008 10.6562
1 18.2589 16.5071 10.6562
1 18.2506 17.2787 9.8663
1 17.4531 16.4855 9.86885
1 19.0526 17.3008 10.6562
1 19.8463 16.5071 10.6562
1 19.8203 17.3092 9.84618
1 19.058 16.5011 9.84551
1 20.64 17.3008 10.6562
1 21.4337 16.5071 10.6562
1 21.4262 17.2976 9.85614
1 20.6429 16.5333 9.86982
1 22.2274 17.3008 10.6562
1 23.0211 16.5071 10.6562
1 22.9922 17.282 9.86448
1 22.2277 16.4974 9.85056
1 23.8148 17.3008 10.6562
1 24.6085 16.5071 10.6562
1 24.6164 17.3018 9.87011
1 23.8186 16.5225 9.85032
1 25.4022 17.3008 10.6562
1 26.1959 16.5071 10.6562
1 26.1867 17.2822 9.86029
1 25.3973 16.4904 9.85554
1 26.9896 17.3008 10.6562
1 27.7833 16.5071 10.6562
1 27.7686 17.3072 9.86533
1 27.0058 16.5117 9.84201
1 28.577 17.3008 10.6562
1 29.3707 16.5071 10.6562
1 29.2993 17.2871 9.82889
1 28.5287 16.4944 9.85567
1 0.00375 15.7134 10.6562
1 0.797451 14.9197 10.6562
1 0.802084 15.7504 9.85867
1 0.0616766 14.9292 9.81282
1 1.59115 15.7134 10.6562
1 2.38485 14.9197 10.6562
1 2.41574 15.6942 9.89195
1 1.60395 14.9309 9.86735
1 3.17855 15.7134 10.6562
1 3.97225 14.9197 10.6562
1 3.9798 15.7115 9.84943
1 3.18636 14.9092 9.86715
1 4.76595 15.7134 10.6562
1 5.55965 14.9197 10.6562
1 5.55001 15.708 9.83916
1 4.75452 14.9048 9.8425
1 6.35335 15.7134 10.6562
1 7.14705 14.9197 10.6562
1 7.12671 15.7236 9.86613
1 6.33408 14.9066 9.86197
1 7.94076 15.7134 10.6562
1 8.73446 14.9197 10.6562
1 8.72002 15.7129 9.83599
1 7.92945 14.9073 9.85727
1 9.52816 15.7134 10.6562
1 10.3219 14.9197 10.6562
1 10.2952 15.7213 9.86766
1 9.54335 14.905 9.86727
1 11.1156 15.7134 10.6562
1 11.9093 14.9197 10.6562
1 11.8876 15.7142 9.8703
1 11.0885 14.9262 9.86778
1 12.703 15.7134 10.6562
1 13.4967 14.9197 10.6562
1 13.4973 15.7003 9.85326
1 12.7027 14.8816 9.87502
1 14.2904 15.7134 10.6562
1 15.0841 14.9197 10.6562
1 15.0828 15.6836 9.87233
1 14.256 14.9162 9.85254
1 15.8778 15.7134 10.6562
1 16.6715 14.9197 10.6562
1 16.6732 15.7295 9.86911
1 15.8774 14.9453 9.88276
1 17.4652 15.7134 10.6562
1 18.2589 14.9197 10.6562
1 18.2841 15.7129 9.85575
1 17.4687 14.9275 9.87631
1 19.0526 15.7134 10.6562
1 19.8463 14.9197 10.6562
1 19.8334 15.7356 9.86044
1 19.0653 14.9129 9.8968
1 20.64 15.7134 10.6562
1 21.4337 14.9197 10.6562
1 21.4301 15.7115 9.85745
1 20.6082 14.9209 9.85005
1 22.2274 15.7134 10.6562
1 23.0211 14.9197 10.6562
1 23.0179 15.712 9.87556
1 22.2099 14.897 9.88163
1 23.8148 15.7134 10.6562
1 24.6085 14.9197 10.6562
1 24.5898 15.7119 9.87147
1 23.8009 14.9171 9.87483
1 25.4022 15.7134 10.6562
1 26.1959 14.9197 10.6562
1 26.1724 15.7088 9.84939
1 25.4154 14.9085 9.84966
1 26.9896 15.7134 10.6562
1 27.7833 14.9197 10.6562
1 27.7822 15.6805 9.8507
1 26.973 14.9148 9.86131
1 28.577 15.7134 10.6562
1 29.3707 14.9197 10.6562
1 29.3011 15.7163 9.82258
1 28.5503 14.9173 9.83623
1 0.00375 14.126 10.6562
1 0.797451 13.3323 10.6562
1 0.816307 14.1199 9.83802
1 0.058792 13.338 9.84513
1 1.59115 14.126 10.6562
1 2.38485 13.3323 10.6562
1 2.39233 14.1284 9.86098
1 1.60038 13.3518 9.85413
1 3.17855 14.126 10.6562
1 3.97225 13.3323 10.6562
1 3.96142 14.1261 9.85226
1 3.18281 13.3674 9.84694
1 4.76595 14.126 10.6562
1 5.55965 13.3323 10.6562
1 5.56587 14.1196 9.84854
1 4.76701 13.3392 9.85918
1 6.35335 14.126 10.6562
1 7.14705 13.3323 10.6562
1 7.12952 14.0998 9.85188
1 6.31929 13.3416 9.84862
1 7.94076 14.126 10.6562
1 8.73446 13.3323 10.6562
1 8.72244 14.116 9.86873
1 7.91734 13.3294 9.87412
1 9.52816 14.126 10.6562
1 10.3219 13.3323 10.6562
1 10.3439 14.1153 9.83915
1 9.55078 13.328 9.85704
1 11.1156 14.126 10.6562
1 11.9093 13.3323 10.6562
1 11.8801 14.1308 9.84798
1 11.0983 13.3135 9.87238
1 12.703 14.126 10.6562
1 13.4967 13.3323 10.6562
1 13.4914 14.1296 9.86496
1 12.6928 13.3423 9.87733
1 14.2904 14.126 10.6562
1 15.0841 13.3323 10.6562
1 15.0977 14.1223 9.84789
1 14.3189 13.346 9.84597
1 15.8778 14.126 10.6562
1 16.6715 13.3323 10.6562
1 16.6522 14.1325 9.86714
1 15.8816 13.3355 9.87742
1 17.4652 14.126 10.6562
1 18.2589 13.3323 10.6562
1 18.248 14.1362 9.85698
1 17.4424 13.3467 9.86543
1 19.0526 14.126 10.6562
1 19.8463 13.3323 10.6562
1 19.8247 14.1157 9.86108
1 19.0556 13.3168 9.84646
1 20.64 14.126 10.6562
1 21.4337 13.3323 10.6562
1 21.429 14.1473 9.85929
1 20.6381 13.3342 9.86257
1 22.2274 14.126 10.6562
1 23.0211 13.3323 10.6562
1 23.0238 14.133 9.88991
1 22.2302 13.34 9.863
1 23.8148 14.126 10.6562
1 24.6085 13.3323 10.6562
1 24.6261 14.1268 9.87446
1 23.8004 13.3511 9.84666
1 25.4022 14.126 10.6562
1 26.1959 13.3323 10.6562
1 26.1924 14.1259 9.83487
1 25.376 13.3191 9.85737
1 26.9896 14.126 10.6562
1 27.7833 13.3323 10.6562
1 27.7642 14.116 9.86579
1 26.9755 13.3168 9.85273
1 28.577 14.126 10.6562
1 29.3707 13.3323 10.6562
1 29.3018 14.1365 9.836
1 28.5448 13.335 9.84021
1 0.00375 12.5386 10.6562
1 0.797451 11.7449 10.6562
1 0.828389 12.5204 9.84814
1 0.0634964 11.7486 9.82376
1 1.59115 12.5386 10.6562
1 2.38485 11.7449 10.6562
1 2.41171 12.5424 9.84557
1 1.5883 11.7464 9.86303
1 3.17855 12.5386 10.6562
1 3.97225 11.7449 10.6562
1 3.97333 12.542 9.84676
1 3.19615 11.7308 9.86677
1 4.76595 12.5386 10.6562
1 5.55965 11.7449 10.6562
1 5.54752 12.5236 9.85785
1 4.76654 11.7324 9.85683
1 6.35335 12.5386 10.6562
1 7.14705 11.7449 10.6562
1 7.15097 12.525 9.86442
1 6.33399 11.7468 9.84003
1 7.94076 12.5386 10.6562
1 8.73446 11.7449 10.6562
1 8.74485 12.5366 9.85331
1 7.95492 11.7323 9.85914
1 9.52816 12.5386 10.6562
1 10.3219 11.7449 10.6562
1 10.2994 12.5251 9.86138
1 9.53056 11.7433 9.87313
1 11.1156 12.5386 10.6562
1 11.9093 11.7449 10.6562
1 11.9194 12.525 9.88756
1 11.1062 11.7457 9.88523
1 12.703 12.5386 10.6562
1 13.4967 11.7449 10.6562
1 13.499 12.5463 9.85679
1 12.7152 11.7251 9.87153
1 14.2904 12.5386 10.6562
1 15.0841 11.7449 10.6562
1 15.0947 12.5486 9.87484
1 14.2858 11.7346 9.86879
1 15.8778 12.5386 10.6562
1 16.6715 11.7449 10.6562
1 16.682 12.5397 9.86319
1 15.8681 11.7293 9.8765
1 17.4652 12.5386 10.6562
1 18.2589 11.7449 10.6562
1 18.2507 12.5266 9.84758
1 17.4765 11.7511 9.86781
1 19.0526 12.5386 10.6562
1 19.8463 11.7449 10.6562
1 19.8402 12.5358 9.83839
1 19.0587 11.7434 9.85878
1 20.64 12.5386 10.6562
1 21.4337 11.7449 10.6562
1 21.4363 12.5074 9.86674
1 20.6391 11.7304 9.85935
1 22.2274 12.5386 10.6562
1 23.0211 11.7449 10.6562
1 22.9955 12.5408 9.87418
1 22.2404 11.7493 9.85184
1 23.8148 12.5386 10.6562
1 24.6085 11.7449 10.6562
1 24.5573 12.5501 9.86897
1 23.8117 11.7671 9.85883
1 25.4022 12.5386 10.6562
1 26.1959 11.7449 10.6562
1 26.1606 12.5464 9.84422
1 25.37 11.7377 9.84213
1 26.9896 12.5386 10.6562
1 27.7833 11.7449 10.6562
1 27.7527 12.5287 9.84137
1 26.9775 11.7681 9.86498
1 28.577 12.5386 10.6562
1 29.3707 11.7449 10.6562
1 29.3145 12.5352 9.8366
1 28.5328 11.7829 9.85617
1 0.00375 10.9512 10.6562
1 0.797451 10.1575 10.6562
1 0.808361 10.9206 9.85532
1 0.0306509 10.1651 9.84565
1 1.59115 10.9512 10.6562
1 2.38485 10.1575 10.6562
1 2.37638 10.9339 9.87792
1 1.60324 10.1433 9.85547
1 3.17855 10.9512 10.6562
1 3.97225 10.1575 10.6562
1 3.99832 10.9113 9.85289
1 3.16008 10.1466 9.86232
1 4.76595 10.9512 10.6562
1 5.55965 10.1575 10.6562
1 5.58551 10.9419 9.84465
1 4.79486 10.1574 9.85938
1 6.35335 10.9512 10.6562
1 7.14705 10.1575 10.6562
1 7.1302 10.9297 9.87329
1 6.31503 10.143 9.84231
1 7.94076 10.9512 10.6562
1 8.73446 10.1575 10.6562
1 8.71697 10.9459 9.86337
1 7.93529 10.146 9.85455
1 9.52816 10.9512 10.6562
1 10.3219 10.1575 10.6562
1 10.3285 10.9612 9.87406
1 9.53924 10.1792 9.85409
1 11.1156 10.9512 10.6562
1 11.9093 10.1575 10.6562
1 11.8973 10.9314 9.84989
1 11.1028 10.1297 9.84502
1 12.703 10.9512 10.6562
1 13.4967 10.1575 10.6562
1 13.4987 10.9453 9.87081
1 12.6819 10.1665 9.85495
1 14.2904 10.9512 10.6562
1 15.0841 10.1575 10.6562
1 15.0663 10.9474 9.87006
1 14.2739 10.1449 9.87637
1 15.8778 10.9512 10.6562
1 16.6715 10.1575 10.6562
1 16.6769 10.9548 9.86279
1 15.8752 10.1378 9.84789
1 17.4652 10.9512 10.6562
1 18.2589 10.1575 10.6562
1 18.2321 10.9475 9.86903
1 17.4711 10.1633 9.85281
1 19.0526 10.9512 10.6562
1 19.8463 10.1575 10.6562
1 19.8359 10.9538 9.85889
1 19.0496 10.1677 9.86091
1 20.64 10.9512 10.6562
1 21.4337 10.1575 10.6562
1 21.4629 10.96 9.87462
1 20.6479 10.1678 9.85253
1 22.2274 10.9512 10.6562
1 23.0211 10.1575 10.6562
1 23.0253 10.9582 9.86376
1 22.2243 10.1746 9.86002
1 23.8148 10.9512 10.6562
1 24.6085 10.1575 10.6562
1 24.6026 10.9573 9.88899
1 23.8161 10.1719 9.87252
1 25.4022 10.9512 10.6562
1 26.1959 10.1575 10.6562
1 26.1907 10.9676 9.89265
1 25.3928 10.1675 9.85082
1 26.9896 10.9512 10.6562
1 27.7833 10.1575 10.6562
1 27.7659 10.9599 9.855
1 26.9762 10.1639 9.85384
1 28.577 10.9512 10.6562
1 29.3707 10.1575 10.6562
1 29.2957 10.9501 9.84871
1 28.5294 10.1452 9.85338
1 0.00375 9.36379 10.6562
1 0.797451 8.57009 10.6562
1 0.811 9.36685 9.83429
1 0.0733584 8.56215 9.8208
1 1.59115 9.36379 10.6562
1 2.38485 8.57009 10.6562
1 2.38855 9.35743 9.83684
1 1.58688 8.56052 9.86581
1 3.17855 9.36379 10.6562
1 3.97225 8.57009 10.6562
1 3.96126 9.36589 9.85012
1 3.18433 8.57636 9.84317
1 4.76595 9.36379 10.6562
1 5.55965 8.57009 10.6562
1 5.54921 9.37289 9.84859
1 4.76755 8.59382 9.85948
1 6.35335 9.36379 10.6562
1 7.14705 8.57009 10.6562
1 7.13738 9.36043 9.85457
1 6.34385 8.57806 9.86136
1 7.94076 9.36379 10.6562
1 8.73446 8.57009 10.6562
1 8.7294 9.35595 9.88287
1 7.91462 8.56339 9.86453
1 9.52816 9.36379 10.6562
1 10.3219 8.57009 10.6562
1 10.3081 9.34569 9.86791
1 9.5117 8.55302 9.8513
1 11.1156 9.36379 10.6562
1 11.9093 8.57009 10.6562
1 11.902 9.35757 9.86893
1 11.0978 8.57801 9.87421
1 12.703 9.36379 10.6562
1 13.4967 8.57009 10.6562
1 13.4807 9.36232 9.87294
1 12.6896 8.57163 9.88425
1 14.2904 9.36379 10.6562
1 15.0841 8.57009 10.6562
1 15.1025 9.32791 9.85032
1 14.2802 8.57943 9.87565
1 15.8778 9.36379 10.6562
1 16.6715 8.57009 10.6562
1 16.6756 9.35617 9.86296
1 15.8731 8.57813 9.89367
1 17.4652 9.36379 10.6562
1 18.2589 8.57009 10.6562
1 18.2833 9.37001 9.85539
1 17.4713 8.57429 9.84609
1 19.0526 9.36379 10.6562
1 19.8463 8.57009 10.6562
1 19.8514 9.36719 9.86765
1 19.0554 8.56504 9.8683
1 20.64 9.36379 10.6562
1 21.4337 8.57009 10.6562
1 21.4289 9.37547 9.86432
1 20.6452 8.57749 9.86996
1 22.2274 9.36379 10.6562
1 23.0211 8.57009 10.6562
1 23.0199 9.37326 9.87747
1 22.228 8.56501 9.88083
1 23.8148 9.36379 10.6562
1 24.6085 8.57009 10.6562
1 24.5905 9.37342 9.86681
1 23.8051 8.56597 9.86138
1 25.4022 9.36379 10.6562
1 26.1959 8.57009 10.6562
1 26.1699 9.37392 9.86385
1 25.3836 8.55191 9.85629
1 26.9896 9.36379 10.6562
1 27.7833 8.57009 10.6562
1 27.7556 9.37459 9.885
1 26.9658 8.58178 9.87822
1 28.577 9.36379 10.6562
1 29.3707 8.57009 10.6562
1 29.3082 9.33596 9.85014
1 28.5448 8.57342 9.88839
1 0.00375 7.77639 10.6562
1 0.797451 6.98268 10.6562
1 0.831125 7.76109 9.84156
1 0.0773508 7.00459 9.8422
1 1.59115 7.77639 10.6562
1 2.38485 6.98268 10.6562
1 2.41237 7.76841 9.84676
1 1.60469 7.01012 9.85827
1 3.17855 7.77639 10.6562
1 3.97225 6.98268 10.6562
1 3.98433 7.77274 9.84076
1 3.18561 6.99536 9.82835
1 4.76595 7.77639 10.6562
1 5.55965 6.98268 10.6562
1 5.56386 7.75941 9.86727
1 4.76976 6.98342 9.84465
1 6.35335 7.77639 10.6562
1 7.14705 6.98268 10.6562
1 7.16108 7.77396 9.86591
1 6.34591 6.98247 9.87033
1 7.94076 7.77639 10.6562
1 8.73446 6.98268 10.6562
1 8.74059 7.78372 9.86902
1 7.93519 6.99043 9.88021
1 9.52816 7.77639 10.6562
1 10.3219 6.98268 10.6562
1 10.3257 7.78587 9.87758
1 9.53371 6.98194 9.87204
1 11.1156 7.77639 10.6562
1 11.9093 6.98268 10.6562
1 11.8844 7.77655 9.87598
1 11.1089 6.98144 9.85094
1 12.703 7.77639 10.6562
1 13.4967 6.98268 10.6562
1 13.4902 7.77918 9.88332
1 12.666 6.94818 9.85798
1 14.2904 7.77639 10.6562
1 15.0841 6.98268 10.6562
1 15.0948 7.76655 9.84316
1 14.2912 6.97243 9.87783
1 15.8778 7.77639 10.6562
1 16.6715 6.98268 10.6562
1 16.6583 7.77296 9.8454
1 15.8845 6.99917 9.86691
1 17.4652 7.77639 10.6562
1 18.2589 6.98268 10.6562
1 18.2864 7.78517 9.85791
1 17.4749 6.99305 9.87485
1 19.0526 7.77639 10.6562
1 19.8463 6.98268 10.6562
1 19.8399 7.79088 9.87882
1 19.0652 6.99387 9.87344
1 20.64 7.77639 10.6562
1 21.4337 6.98268 10.6562
1 21.4514 7.7703 9.88915
1 20.6331 7.00988 9.87562
1 22.2274 7.77639 10.6562
1 23.0211 6.98268 10.6562
1 23.0146 7.7914 9.86156
1 22.2448 6.96906 9.86758
1 23.8148 7.77639 10.6562
1 24.6085 6.98268 10.6562
1 24.6097 7.77359 9.87196
1 23.8388 6.9843 9.85328
1 25.4022 7.77639 10.6562
1 26.1959 6.98268 10.6562
1 26.1874 7.78734 9.86512
1 25.403 6.96545 9.85246
1 26.9896 7.77639 10.6562
1 27.7833 6.98268 10.6562
1 27.7606 7.77207 9.85533
1 26.9633 6.98258 9.85989
1 28.577 7.77639 10.6562
1 29.3707 6.98268 10.6562
1 29.3101 7.78159 9.83513
1 28.5557 6.9826 9.84145
1 0.00375 6.18898 10.6562
1 0.797451 5.39528 10.6562
1 0.839063 6.19115 9.85489
1 0.0655471 5.39244 9.83597
1 1.59115 6.18898 10.6562
1 2.38485 5.39528 10.6562
1 2.41296 6.1596 9.85475
1 1.57631 5.40295 9.86236
1 3.17855 6.18898 10.6562
1 3.97225 5.39528 10.6562
1 3.98974 6.20564 9.86507
1 3.18852 5.39378 9.86868
1 4.76595 6.18898 10.6562
1 5.55965 5.39528 10.6562
1 5.56227 6.1915 9.83449
1 4.76241 5.39556 9.88344
1 6.35335 6.18898 10.6562
1 7.14705 5.39528 10.6562