12976
Atoms. Timestep: 4000000
1 30 7.10543e-15 17.6367
1 0.793701 29.2063 17.6367
1 0.824187 29.9211 16.7753
1 0.0515917 29.1687 16.818
1 1.5874 7.10543e-15 17.6367
1 2.3811 29.2063 17.6367
1 2.39832 29.9571 16.8122
1 1.60167 29.2024 16.8148
1 3.1748 7.10543e-15 17.6367
1 3.9685 29.2063 17.6367
1 4.00397 29.9484 16.8151
1 3.19714 29.2202 16.8372
1 4.7622 7.10543e-15 17.6367
1 5.5559 29.2063 17.6367
1 5.56531 29.9239 16.8116
1 4.78447 29.1792 16.8428
1 6.3496 7.10543e-15 17.6367
1 7.1433 29.2063 17.6367
1 7.13246 29.9231 16.808
1 6.36326 29.1922 16.8365
1 7.93701 7.10543e-15 17.6367
1 8.73071 29.2063 17.6367
1 8.72175 29.947 16.8238
1 7.94853 29.1861 16.8528
1 9.52441 7.10543e-15 17.6367
1 10.3181 29.2063 17.6367
1 10.3313 29.9295 16.8215
1 9.50958 29.154 16.8591
1 11.1118 7.10543e-15 17.6367
1 11.9055 29.2063 17.6367
1 11.8905 29.9155 16.8056
1 11.0993 29.1563 16.8419
1 12.6992 7.10543e-15 17.6367
1 13.4929 29.2063 17.6367
1 13.5176 29.9195 16.8088
1 12.7252 29.2024 16.8493
1 14.2866 7.10543e-15 17.6367
1 15.0803 29.2063 17.6367
1 15.094 29.9521 16.8156
1 14.3088 29.1913 16.8152
1 15.874 7.10543e-15 17.6367
1 16.6677 29.2063 17.6367
1 16.6676 29.9258 16.8271
1 15.8728 29.2036 16.8502
1 17.4614 7.10543e-15 17.6367
1 18.2551 29.2063 17.6367
1 18.2941 29.9087 16.7971
1 17.4786 29.1698 16.8292
1 19.0488 7.10543e-15 17.6367
1 19.8425 29.2063 17.6367
1 19.8506 29.9138 16.805
1 19.0529 29.1569 16.8412
1 20.6362 7.10543e-15 17.6367
1 21.4299 29.2063 17.6367
1 21.4337 29.9334 16.8078
1 20.6535 29.1531 16.86
1 22.2236 7.10543e-15 17.6367
1 23.0173 29.2063 17.6367
1 23.0251 29.9386 16.8027
1 22.2127 29.1612 16.8339
1 23.811 7.10543e-15 17.6367
1 24.6047 29.2063 17.6367
1 24.6031 29.937 16.8408
1 23.822 29.1713 16.8289
1 25.3984 7.10543e-15 17.6367
1 26.1921 29.2063 17.6367
1 26.1844 29.8989 16.8129
1 25.4012 29.1541 16.8514
1 26.9858 7.10543e-15 17.6367
1 27.7795 29.2063 17.6367
1 27.774 29.9238 16.8144
1 26.9881 29.164 16.8266
1 28.5732 7.10543e-15 17.6367
1 29.3669 29.2063 17.6367
1 29.2799 29.9467 16.7628
1 28.525 29.1802 16.8385
1 30 28.4126 17.6367
1 0.793701 27.6189 17.6367
1 0.822788 28.4102 16.8246
1 0.080858 27.6332 16.816
1 1.5874 28.4126 17.6367
1 2.3811 27.6189 17.6367
1 2.39605 28.4216 16.8426
1 1.60208 27.6131 16.8411
1 3.1748 28.4126 17.6367
1 3.9685 27.6189 17.6367
1 3.99446 28.4154 16.8677
1 3.18786 27.6092 16.8401
1 4.7622 28.4126 17.6367
1 5.5559 27.6189 17.6367
1 5.56819 28.3937 16.848
1 4.74835 27.6326 16.8539
1 6.3496 28.4126 17.6367
1 7.1433 27.6189 17.6367
1 7.14864 28.3874 16.8393
1 6.37999 27.5981 16.8465
1 7.93701 28.4126 17.6367
1 8.73071 27.6189 17.6367
1 8.71767 28.4004 16.8414
1 7.92024 27.6023 16.8147
1 9.52441 28.4126 17.6367
1 10.3181 27.6189 17.6367
1 10.2935 28.3685 16.834
1 9.48857 27.5922 16.8428
1 11.1118 28.4126 17.6367
1 11.9055 27.6189 17.6367
1 11.9156 28.4073 16.8475
1 11.1111 27.5895 16.8285
1 12.6992 28.4126 17.6367
1 13.4929 27.6189 17.6367
1 13.5127 28.39 16.8233
1 12.7239 27.6119 16.8349
1 14.2866 28.4126 17.6367
1 15.0803 27.6189 17.6367
1 15.077 28.3955 16.8648
1 14.2843 27.5759 16.8542
1 15.874 28.4126 17.6367
1 16.6677 27.6189 17.6367
1 16.6723 28.4059 16.8386
1 15.8767 27.5949 16.8527
1 17.4614 28.4126 17.6367
1 18.2551 27.6189 17.6367
1 18.2532 28.3885 16.8525
1 17.4583 27.5978 16.8241
1 19.0488 28.4126 17.6367
1 19.8425 27.6189 17.6367
1 19.8597 28.3927 16.8462
1 19.0605 27.6161 16.8283
1 20.6362 28.4126 17.6367
1 21.4299 27.6189 17.6367
1 21.4283 28.3807 16.822
1 20.6451 27.5735 16.8265
1 22.2236 28.4126 17.6367
1 23.0173 27.6189 17.6367
1 22.9893 28.3915 16.807
1 22.2187 27.5733 16.818
1 23.811 28.4126 17.6367
1 24.6047 27.6189 17.6367
1 24.6129 28.3876 16.86
1 23.7919 27.5919 16.8197
1 25.3984 28.4126 17.6367
1 26.1921 27.6189 17.6367
1 26.1947 28.3964 16.8376
1 25.4022 27.6189 16.8588
1 26.9858 28.4126 17.6367
1 27.7795 27.6189 17.6367
1 27.7601 28.4014 16.8495
1 26.9687 27.5946 16.8437
1 28.5732 28.4126 17.6367
1 29.3669 27.6189 17.6367
1 29.3226 28.4025 16.8075
1 28.554 27.6238 16.8377
1 30 26.8252 17.6367
1 0.793701 26.0315 17.6367
1 0.824531 26.8039 16.8456
1 0.0773736 26.0217 16.8273
1 1.5874 26.8252 17.6367
1 2.3811 26.0315 17.6367
1 2.39926 26.8206 16.8702
1 1.59738 26.033 16.841
1 3.1748 26.8252 17.6367
1 3.9685 26.0315 17.6367
1 3.96223 26.8366 16.8538
1 3.18072 26.0338 16.837
1 4.7622 26.8252 17.6367
1 5.5559 26.0315 17.6367
1 5.54674 26.8471 16.8408
1 4.7637 26.0613 16.8432
1 6.3496 26.8252 17.6367
1 7.1433 26.0315 17.6367
1 7.14494 26.8037 16.834
1 6.34251 26.0246 16.8264
1 7.93701 26.8252 17.6367
1 8.73071 26.0315 17.6367
1 8.71631 26.8136 16.8228
1 7.93292 26.0426 16.8394
1 9.52441 26.8252 17.6367
1 10.3181 26.0315 17.6367
1 10.3278 26.8327 16.8361
1 9.51505 26.0491 16.854
1 11.1118 26.8252 17.6367
1 11.9055 26.0315 17.6367
1 11.9044 26.8233 16.8641
1 11.0801 26.0215 16.842
1 12.6992 26.8252 17.6367
1 13.4929 26.0315 17.6367
1 13.4898 26.8142 16.8556
1 12.6742 26.0242 16.8532
1 14.2866 26.8252 17.6367
1 15.0803 26.0315 17.6367
1 15.0866 26.804 16.8708
1 14.2544 25.9982 16.8306
1 15.874 26.8252 17.6367
1 16.6677 26.0315 17.6367
1 16.6746 26.7952 16.849
1 15.8555 26.0184 16.8488
1 17.4614 26.8252 17.6367
1 18.2551 26.0315 17.6367
1 18.259 26.8287 16.8039
1 17.451 26.0315 16.8228
1 19.0488 26.8252 17.6367
1 19.8425 26.0315 17.6367
1 19.8721 26.8087 16.8515
1 19.0374 26.0067 16.8484
1 20.6362 26.8252 17.6367
1 21.4299 26.0315 17.6367
1 21.4069 26.7979 16.8172
1 20.6503 25.9968 16.816
1 22.2236 26.8252 17.6367
1 23.0173 26.0315 17.6367
1 23.0134 26.8111 16.8275
1 22.2168 26.024 16.8397
1 23.811 26.8252 17.6367
1 24.6047 26.0315 17.6367
1 24.5813 26.8252 16.824
1 23.8089 26.0314 16.864
1 25.3984 26.8252 17.6367
1 26.1921 26.0315 17.6367
1 26.1696 26.824 16.8452
1 25.373 26.0298 16.82
1 26.9858 26.8252 17.6367
1 27.7795 26.0315 17.6367
1 27.7754 26.8186 16.8437
1 26.9639 26.0381 16.8442
1 28.5732 26.8252 17.6367
1 29.3669 26.0315 17.6367
1 29.3334 26.7979 16.8008
1 28.5437 26.024 16.8379
1 30 25.2378 17.6367
1 0.793701 24.4441 17.6367
1 0.821295 25.2107 16.8323
1 0.0523304 24.4402 16.8082
1 1.5874 25.2378 17.6367
1 2.3811 24.4441 17.6367
1 2.38117 25.228 16.8544
1 1.62762 24.4131 16.8758
1 3.1748 25.2378 17.6367
1 3.9685 24.4441 17.6367
1 3.9636 25.2444 16.8558
1 3.20137 24.4327 16.833
1 4.7622 25.2378 17.6367
1 5.5559 24.4441 17.6367
1 5.53101 25.2281 16.8445
1 4.75368 24.441 16.8301
1 6.3496 25.2378 17.6367
1 7.1433 24.4441 17.6367
1 7.12496 25.2604 16.8576
1 6.33063 24.4335 16.844
1 7.93701 25.2378 17.6367
1 8.73071 24.4441 17.6367
1 8.74751 25.2421 16.8239
1 7.94408 24.4631 16.8272
1 9.52441 25.2378 17.6367
1 10.3181 24.4441 17.6367
1 10.2911 25.2263 16.8096
1 9.5275 24.4551 16.8247
1 11.1118 25.2378 17.6367
1 11.9055 24.4441 17.6367
1 11.8875 25.2421 16.8703
1 11.1 24.4486 16.8491
1 12.6992 25.2378 17.6367
1 13.4929 24.4441 17.6367
1 13.4781 25.2227 16.8593
1 12.6746 24.4291 16.854
1 14.2866 25.2378 17.6367
1 15.0803 24.4441 17.6367
1 15.0748 25.2569 16.8596
1 14.304 24.436 16.8248
1 15.874 25.2378 17.6367
1 16.6677 24.4441 17.6367
1 16.6599 25.2379 16.8369
1 15.8625 24.4431 16.8161
1 17.4614 25.2378 17.6367
1 18.2551 24.4441 17.6367
1 18.2433 25.2205 16.8348
1 17.4633 24.4504 16.847
1 19.0488 25.2378 17.6367
1 19.8425 24.4441 17.6367
1 19.8345 25.2286 16.8342
1 19.0568 24.4224 16.8498
1 20.6362 25.2378 17.6367
1 21.4299 24.4441 17.6367
1 21.4322 25.2171 16.8247
1 20.6631 24.4278 16.8427
1 22.2236 25.2378 17.6367
1 23.0173 24.4441 17.6367
1 22.9875 25.2345 16.8311
1 22.2424 24.4437 16.8419
1 23.811 25.2378 17.6367
1 24.6047 24.4441 17.6367
1 24.608 25.2257 16.8555
1 23.811 24.4393 16.8337
1 25.3984 25.2378 17.6367
1 26.1921 24.4441 17.6367
1 26.1821 25.2311 16.8286
1 25.379 24.4138 16.8371
1 26.9858 25.2378 17.6367
1 27.7795 24.4441 17.6367
1 27.7735 25.2258 16.8671
1 26.9741 24.4124 16.8266
1 28.5732 25.2378 17.6367
1 29.3669 24.4441 17.6367
1 29.3095 25.2439 16.8032
1 28.5465 24.4485 16.8505
1 30 23.6504 17.6367
1 0.793701 22.8567 17.6367
1 0.843886 23.6302 16.847
1 0.0652479 22.8436 16.8126
1 1.5874 23.6504 17.6367
1 2.3811 22.8567 17.6367
1 2.41788 23.6541 16.865
1 1.60583 22.8504 16.8456
1 3.1748 23.6504 17.6367
1 3.9685 22.8567 17.6367
1 3.98438 23.6411 16.8469
1 3.20628 22.8538 16.831
1 4.7622 23.6504 17.6367
1 5.5559 22.8567 17.6367
1 5.54718 23.6466 16.8445
1 4.76393 22.8461 16.8694
1 6.3496 23.6504 17.6367
1 7.1433 22.8567 17.6367
1 7.13388 23.6649 16.8051
1 6.34668 22.8709 16.8594
1 7.93701 23.6504 17.6367
1 8.73071 22.8567 17.6367
1 8.73254 23.6689 16.8289
1 7.92919 22.8287 16.8561
1 9.52441 23.6504 17.6367
1 10.3181 22.8567 17.6367
1 10.3222 23.6444 16.8322
1 9.52204 22.8549 16.8506
1 11.1118 23.6504 17.6367
1 11.9055 22.8567 17.6367
1 11.8766 23.6388 16.828
1 11.1167 22.8356 16.8382
1 12.6992 23.6504 17.6367
1 13.4929 22.8567 17.6367
1 13.4854 23.6651 16.8408
1 12.7001 22.8552 16.8491
1 14.2866 23.6504 17.6367
1 15.0803 22.8567 17.6367
1 15.0813 23.6398 16.8438
1 14.2923 22.8913 16.8388
1 15.874 23.6504 17.6367
1 16.6677 22.8567 17.6367
1 16.6606 23.6502 16.8268
1 15.9044 22.8508 16.8437
1 17.4614 23.6504 17.6367
1 18.2551 22.8567 17.6367
1 18.2266 23.6585 16.8538
1 17.4648 22.843 16.8692
1 19.0488 23.6504 17.6367
1 19.8425 22.8567 17.6367
1 19.857 23.6642 16.8534
1 19.0698 22.8802 16.8643
1 20.6362 23.6504 17.6367
1 21.4299 22.8567 17.6367
1 21.4565 23.636 16.8449
1 20.6487 22.8597 16.8518
1 22.2236 23.6504 17.6367
1 23.0173 22.8567 17.6367
1 23.0045 23.6316 16.834
1 22.2465 22.8564 16.8349
1 23.811 23.6504 17.6367
1 24.6047 22.8567 17.6367
1 24.5714 23.645 16.8186
1 23.7972 22.8634 16.8367
1 25.3984 23.6504 17.6367
1 26.1921 22.8567 17.6367
1 26.2022 23.6678 16.8224
1 25.3758 22.86 16.8563
1 26.9858 23.6504 17.6367
1 27.7795 22.8567 17.6367
1 27.7606 23.6299 16.8367
1 26.9838 22.8367 16.839
1 28.5732 23.6504 17.6367
1 29.3669 22.8567 17.6367
1 29.3129 23.68 16.8066
1 28.5533 22.8412 16.8383
1 30 22.063 17.6367
1 0.793701 21.2693 17.6367
1 0.842307 22.0552 16.8492
1 0.0827552 21.2643 16.7955
1 1.5874 22.063 17.6367
1 2.3811 21.2693 17.6367
1 2.39308 22.0686 16.8688
1 1.60093 21.2656 16.8437
1 3.1748 22.063 17.6367
1 3.9685 21.2693 17.6367
1 3.95905 22.069 16.8337
1 3.20043 21.2964 16.8412
1 4.7622 22.063 17.6367
1 5.5559 21.2693 17.6367
1 5.57515 22.0859 16.8535
1 4.76353 21.2951 16.8441
1 6.3496 22.063 17.6367
1 7.1433 21.2693 17.6367
1 7.14049 22.0613 16.8467
1 6.32195 21.2795 16.8347
1 7.93701 22.063 17.6367
1 8.73071 21.2693 17.6367
1 8.72934 22.0565 16.8345
1 7.93403 21.2582 16.843
1 9.52441 22.063 17.6367
1 10.3181 21.2693 17.6367
1 10.3179 22.0569 16.8342
1 9.52515 21.2429 16.8403
1 11.1118 22.063 17.6367
1 11.9055 21.2693 17.6367
1 11.9113 22.0531 16.8572
1 11.0831 21.2525 16.8234
1 12.6992 22.063 17.6367
1 13.4929 21.2693 17.6367
1 13.4893 22.0703 16.8683
1 12.6871 21.2715 16.8688
1 14.2866 22.063 17.6367
1 15.0803 21.2693 17.6367
1 15.0991 22.0552 16.8267
1 14.2961 21.2597 16.8336
1 15.874 22.063 17.6367
1 16.6677 21.2693 17.6367
1 16.6692 22.0481 16.8577
1 15.8658 21.2693 16.8772
1 17.4614 22.063 17.6367
1 18.2551 21.2693 17.6367
1 18.2838 22.0363 16.8592
1 17.4603 21.269 16.8646
1 19.0488 22.063 17.6367
1 19.8425 21.2693 17.6367
1 19.8603 22.0659 16.8443
1 19.0375 21.2625 16.8331
1 20.6362 22.063 17.6367
1 21.4299 21.2693 17.6367
1 21.4374 22.0589 16.85
1 20.6299 21.2497 16.8891
1 22.2236 22.063 17.6367
1 23.0173 21.2693 17.6367
1 23.0324 22.0578 16.8341
1 22.2284 21.2625 16.8668
1 23.811 22.063 17.6367
1 24.6047 21.2693 17.6367
1 24.5786 22.0942 16.8317
1 23.802 21.2558 16.8349
1 25.3984 22.063 17.6367
1 26.1921 21.2693 17.6367
1 26.177 22.0741 16.8283
1 25.408 21.2757 16.8568
1 26.9858 22.063 17.6367
1 27.7795 21.2693 17.6367
1 27.785 22.0798 16.8317
1 26.9739 21.2837 16.8401
1 28.5732 22.063 17.6367
1 29.3669 21.2693 17.6367
1 29.2909 22.0473 16.797
1 28.5408 21.273 16.831
1 30 20.4756 17.6367
1 0.793701 19.6819 17.6367
1 0.853315 20.4722 16.8453
1 0.0786503 19.6923 16.8076
1 1.5874 20.4756 17.6367
1 2.3811 19.6819 17.6367
1 2.39845 20.4835 16.8382
1 1.58642 19.6869 16.8323
1 3.1748 20.4756 17.6367
1 3.9685 19.6819 17.6367
1 3.98989 20.4833 16.8563
1 3.19314 19.7041 16.8491
1 4.7622 20.4756 17.6367
1 5.5559 19.6819 17.6367
1 5.54269 20.4864 16.8451
1 4.77072 19.691 16.8436
1 6.3496 20.4756 17.6367
1 7.1433 19.6819 17.6367
1 7.16472 20.4675 16.8416
1 6.36689 19.6494 16.8456
1 7.93701 20.4756 17.6367
1 8.73071 19.6819 17.6367
1 8.73408 20.4698 16.8536
1 7.95503 19.6771 16.839
1 9.52441 20.4756 17.6367
1 10.3181 19.6819 17.6367
1 10.3393 20.4918 16.8475
1 9.55018 19.6839 16.8246
1 11.1118 20.4756 17.6367
1 11.9055 19.6819 17.6367
1 11.9016 20.4913 16.8546
1 11.14 19.6724 16.8678
1 12.6992 20.4756 17.6367
1 13.4929 19.6819 17.6367
1 13.4932 20.4881 16.8453
1 12.7303 19.6953 16.8504
1 14.2866 20.4756 17.6367
1 15.0803 19.6819 17.6367
1 15.0661 20.4724 16.8496
1 14.2807 19.6812 16.8366
1 15.874 20.4756 17.6367
1 16.6677 19.6819 17.6367
1 16.6713 20.495 16.8482
1 15.8918 19.6817 16.8418
1 17.4614 20.4756 17.6367
1 18.2551 19.6819 17.6367
1 18.2656 20.4885 16.8437
1 17.4634 19.6877 16.8526
1 19.0488 20.4756 17.6367
1 19.8425 19.6819 17.6367
1 19.841 20.4672 16.8624
1 19.0591 19.6933 16.8427
1 20.6362 20.4756 17.6367
1 21.4299 19.6819 17.6367
1 21.4156 20.4781 16.8493
1 20.6517 19.6872 16.8505
1 22.2236 20.4756 17.6367
1 23.0173 19.6819 17.6367
1 23.0266 20.4819 16.8459
1 22.197 19.6955 16.8584
1 23.811 20.4756 17.6367
1 24.6047 19.6819 17.6367
1 24.5997 20.4555 16.8348
1 23.8108 19.6849 16.8193
1 25.3984 20.4756 17.6367
1 26.1921 19.6819 17.6367
1 26.1861 20.4931 16.8411
1 25.4052 19.6812 16.8526
1 26.9858 20.4756 17.6367
1 27.7795 19.6819 17.6367
1 27.7703 20.5077 16.8575
1 26.9555 19.7041 16.8473
1 28.5732 20.4756 17.6367
1 29.3669 19.6819 17.6367
1 29.3332 20.4654 16.8093
1 28.5319 19.6762 16.8661
1 30 18.8882 17.6367
1 0.793701 18.0945 17.6367
1 0.817995 18.8752 16.8627
1 0.0551466 18.1088 16.807
1 1.5874 18.8882 17.6367
1 2.3811 18.0945 17.6367
1 2.38828 18.8856 16.8517
1 1.61528 18.0695 16.8683
1 3.1748 18.8882 17.6367
1 3.9685 18.0945 17.6367
1 3.97475 18.8869 16.8461
1 3.17983 18.1148 16.8465
1 4.7622 18.8882 17.6367
1 5.5559 18.0945 17.6367
1 5.55955 18.8642 16.8347
1 4.76003 18.1076 16.8295
1 6.3496 18.8882 17.6367
1 7.1433 18.0945 17.6367
1 7.17051 18.881 16.8461
1 6.36181 18.1133 16.8422
1 7.93701 18.8882 17.6367
1 8.73071 18.0945 17.6367
1 8.7149 18.8652 16.8408
1 7.93743 18.0757 16.8511
1 9.52441 18.8882 17.6367
1 10.3181 18.0945 17.6367
1 10.3189 18.9132 16.8498
1 9.53044 18.1097 16.8636
1 11.1118 18.8882 17.6367
1 11.9055 18.0945 17.6367
1 11.9201 18.8838 16.8403
1 11.1059 18.1071 16.8348
1 12.6992 18.8882 17.6367
1 13.4929 18.0945 17.6367
1 13.5104 18.8953 16.8244
1 12.7077 18.0886 16.8524
1 14.2866 18.8882 17.6367
1 15.0803 18.0945 17.6367
1 15.0886 18.8941 16.8338
1 14.3279 18.0944 16.8678
1 15.874 18.8882 17.6367
1 16.6677 18.0945 17.6367
1 16.6547 18.8947 16.8534
1 15.8626 18.0852 16.8461
1 17.4614 18.8882 17.6367
1 18.2551 18.0945 17.6367
1 18.2514 18.9116 16.8504
1 17.4685 18.0911 16.8414
1 19.0488 18.8882 17.6367
1 19.8425 18.0945 17.6367
1 19.8313 18.907 16.8482
1 19.0359 18.1259 16.8618
1 20.6362 18.8882 17.6367
1 21.4299 18.0945 17.6367
1 21.4329 18.895 16.8384
1 20.6285 18.1141 16.8395
1 22.2236 18.8882 17.6367
1 23.0173 18.0945 17.6367
1 23.0189 18.8974 16.8536
1 22.2233 18.0723 16.8419
1 23.811 18.8882 17.6367
1 24.6047 18.0945 17.6367
1 24.5883 18.8915 16.8609
1 23.8004 18.097 16.8308
1 25.3984 18.8882 17.6367
1 26.1921 18.0945 17.6367
1 26.1827 18.8831 16.8277
1 25.4185 18.0825 16.8704
1 26.9858 18.8882 17.6367
1 27.7795 18.0945 17.6367
1 27.7507 18.8962 16.8466
1 26.9715 18.0878 16.8467
1 28.5732 18.8882 17.6367
1 29.3669 18.0945 17.6367
1 29.3119 18.904 16.791
1 28.5568 18.0984 16.8372
1 30 17.3008 17.6367
1 0.793701 16.5071 17.6367
1 0.849281 17.2657 16.8482
1 0.0596621 16.5046 16.8252
1 1.5874 17.3008 17.6367
1 2.3811 16.5071 17.6367
1 2.38985 17.2773 16.8599
1 1.59115 16.4888 16.8434
1 3.1748 17.3008 17.6367
1 3.9685 16.5071 17.6367
1 3.96772 17.3417 16.8601
1 3.17911 16.5133 16.8541
1 4.7622 17.3008 17.6367
1 5.5559 16.5071 17.6367
1 5.58549 17.3158 16.8379
1 4.80205 16.4828 16.8295
1 6.3496 17.3008 17.6367
1 7.1433 16.5071 17.6367
1 7.1223 17.3267 16.8317
1 6.34476 16.5052 16.8346
1 7.93701 17.3008 17.6367
1 8.73071 16.5071 17.6367
1 8.72488 17.3352 16.878
1 7.93784 16.5283 16.8493
1 9.52441 17.3008 17.6367
1 10.3181 16.5071 17.6367
1 10.3056 17.309 16.8337
1 9.49468 16.4957 16.8566
1 11.1118 17.3008 17.6367
1 11.9055 16.5071 17.6367
1 11.8845 17.3293 16.8493
1 11.1149 16.505 16.8384
1 12.6992 17.3008 17.6367
1 13.4929 16.5071 17.6367
1 13.4924 17.3195 16.8679
1 12.7011 16.5499 16.86
1 14.2866 17.3008 17.6367
1 15.0803 16.5071 17.6367
1 15.087 17.3133 16.8236
1 14.3013 16.5125 16.8485
1 15.874 17.3008 17.6367
1 16.6677 16.5071 17.6367
1 16.6405 17.3027 16.8361
1 15.891 16.5233 16.8455
1 17.4614 17.3008 17.6367
1 18.2551 16.5071 17.6367
1 18.2789 17.3333 16.8342
1 17.4452 16.5043 16.8692
1 19.0488 17.3008 17.6367
1 19.8425 16.5071 17.6367
1 19.8233 17.3046 16.8595
1 19.0525 16.4775 16.8387
1 20.6362 17.3008 17.6367
1 21.4299 16.5071 17.6367
1 21.4003 17.3085 16.8661
1 20.6501 16.4899 16.837
1 22.2236 17.3008 17.6367
1 23.0173 16.5071 17.6367
1 23.0223 17.2837 16.8454
1 22.2222 16.4947 16.8329
1 23.811 17.3008 17.6367
1 24.6047 16.5071 17.6367
1 24.6106 17.295 16.8523
1 23.8365 16.4945 16.8567
1 25.3984 17.3008 17.6367
1 26.1921 16.5071 17.6367
1 26.1945 17.31 16.8283
1 25.3944 16.4959 16.8628
1 26.9858 17.3008 17.6367
1 27.7795 16.5071 17.6367
1 27.7832 17.3032 16.8516
1 26.9597 16.4963 16.8455
1 28.5732 17.3008 17.6367
1 29.3669 16.5071 17.6367
1 29.3252 17.2664 16.7859
1 28.548 16.4984 16.8417
1 30 15.7134 17.6367
1 0.793701 14.9197 17.6367
1 0.823738 15.6855 16.852
1 0.0787717 14.9062 16.8173
1 1.5874 15.7134 17.6367
1 2.3811 14.9197 17.6367
1 2.39876 15.7193 16.8244
1 1.61489 14.9129 16.8432
1 3.1748 15.7134 17.6367
1 3.9685 14.9197 17.6367
1 3.9818 15.7405 16.8294
1 3.20301 14.9233 16.8533
1 4.7622 15.7134 17.6367
1 5.5559 14.9197 17.6367
1 5.56485 15.7291 16.8472
1 4.77698 14.9617 16.8557
1 6.3496 15.7134 17.6367
1 7.1433 14.9197 17.6367
1 7.14633 15.7278 16.8634
1 6.36904 14.9254 16.8698
1 7.93701 15.7134 17.6367
1 8.73071 14.9197 17.6367
1 8.74235 15.7125 16.8319
1 7.94952 14.922 16.8542
1 9.52441 15.7134 17.6367
1 10.3181 14.9197 17.6367
1 10.3094 15.7054 16.8196
1 9.51832 14.9124 16.8249
1 11.1118 15.7134 17.6367
1 11.9055 14.9197 17.6367
1 11.9192 15.7319 16.825
1 11.122 14.9096 16.8544
1 12.6992 15.7134 17.6367
1 13.4929 14.9197 17.6367
1 13.4762 15.7041 16.8502
1 12.6863 14.927 16.8402
1 14.2866 15.7134 17.6367
1 15.0803 14.9197 17.6367
1 15.0972 15.7375 16.8561
1 14.2842 14.9229 16.8718
1 15.874 15.7134 17.6367
1 16.6677 14.9197 17.6367
1 16.6616 15.7239 16.8564
1 15.8729 14.8992 16.8558
1 17.4614 15.7134 17.6367
1 18.2551 14.9197 17.6367
1 18.2674 15.6944 16.8396
1 17.4682 14.9473 16.839
1 19.0488 15.7134 17.6367
1 19.8425 14.9197 17.6367
1 19.8543 15.6904 16.8556
1 19.074 14.9059 16.8296
1 20.6362 15.7134 17.6367
1 21.4299 14.9197 17.6367
1 21.4423 15.6832 16.8354
1 20.6387 14.9112 16.8628
1 22.2236 15.7134 17.6367
1 23.0173 14.9197 17.6367
1 23.0192 15.7166 16.8345
1 22.2133 14.9096 16.8457
1 23.811 15.7134 17.6367
1 24.6047 14.9197 17.6367
1 24.5722 15.7035 16.8548
1 23.789 14.9322 16.859
1 25.3984 15.7134 17.6367
1 26.1921 14.9197 17.6367
1 26.188 15.7097 16.8768
1 25.381 14.9115 16.855
1 26.9858 15.7134 17.6367
1 27.7795 14.9197 17.6367
1 27.751 15.7045 16.8392
1 26.982 14.913 16.8496
1 28.5732 15.7134 17.6367
1 29.3669 14.9197 17.6367
1 29.3006 15.6984 16.8208
1 28.5361 14.9037 16.8326
1 30 14.126 17.6367
1 0.793701 13.3323 17.6367
1 0.836384 14.121 16.8655
1 0.0765356 13.3065 16.7912
1 1.5874 14.126 17.6367
1 2.3811 13.3323 17.6367
1 2.40406 14.1155 16.8373
1 1.57153 13.3369 16.8182
1 3.1748 14.126 17.6367
1 3.9685 13.3323 17.6367
1 3.96008 14.1328 16.8276
1 3.20278 13.3363 16.8428
1 4.7622 14.126 17.6367
1 5.5559 13.3323 17.6367
1 5.55721 14.1304 16.8473
1 4.78317 13.3319 16.8482
1 6.3496 14.126 17.6367
1 7.1433 13.3323 17.6367
1 7.13938 14.1143 16.8362
1 6.37123 13.3602 16.8668
1 7.93701 14.126 17.6367
1 8.73071 13.3323 17.6367
1 8.73295 14.0988 16.8375
1 7.95125 13.3451 16.8708
1 9.52441 14.126 17.6367
1 10.3181 13.3323 17.6367
1 10.3447 14.1316 16.8344
1 9.50695 13.3313 16.8339
1 11.1118 14.126 17.6367
1 11.9055 13.3323 17.6367
1 11.9204 14.1332 16.8489
1 11.0949 13.3371 16.8213
1 12.6992 14.126 17.6367
1 13.4929 13.3323 17.6367
1 13.5013 14.124 16.8461
1 12.7088 13.3288 16.8389
1 14.2866 14.126 17.6367
1 15.0803 13.3323 17.6367
1 15.1062 14.1258 16.8419
1 14.3027 13.3499 16.7976
1 15.874 14.126 17.6367
1 16.6677 13.3323 17.6367
1 16.6595 14.1522 16.8274
1 15.8813 13.3277 16.8322
1 17.4614 14.126 17.6367
1 18.2551 13.3323 17.6367
1 18.2439 14.1227 16.8469
1 17.4544 13.3383 16.8636
1 19.0488 14.126 17.6367
1 19.8425 13.3323 17.6367
1 19.8516 14.0952 16.8793
1 19.0465 13.3252 16.8508
1 20.6362 14.126 17.6367
1 21.4299 13.3323 17.6367
1 21.4329 14.1408 16.873
1 20.6728 13.3505 16.8451
1 22.2236 14.126 17.6367
1 23.0173 13.3323 17.6367
1 23.0064 14.1498 16.8559
1 22.1962 13.3196 16.8351
1 23.811 14.126 17.6367
1 24.6047 13.3323 17.6367
1 24.5956 14.1166 16.8568
1 23.8146 13.3393 16.8656
1 25.3984 14.126 17.6367
1 26.1921 13.3323 17.6367
1 26.1772 14.1124 16.8359
1 25.3783 13.3358 16.8658
1 26.9858 14.126 17.6367
1 27.7795 13.3323 17.6367
1 27.7797 14.1133 16.846
1 26.9721 13.3387 16.8492
1 28.5732 14.126 17.6367
1 29.3669 13.3323 17.6367
1 29.3227 14.1053 16.8194
1 28.5546 13.3305 16.83
1 30 12.5386 17.6367
1 0.793701 11.7449 17.6367
1 0.817019 12.5024 16.8546
1 0.0370356 11.753 16.807
1 1.5874 12.5386 17.6367
1 2.3811 11.7449 17.6367
1 2.39199 12.5561 16.8634
1 1.63803 11.7552 16.8643
1 3.1748 12.5386 17.6367
1 3.9685 11.7449 17.6367
1 3.96453 12.5255 16.8498
1 3.17043 11.7311 16.8884
1 4.7622 12.5386 17.6367
1 5.5559 11.7449 17.6367
1 5.54727 12.5426 16.8664
1 4.75693 11.736 16.85
1 6.3496 12.5386 17.6367
1 7.1433 11.7449 17.6367
1 7.13642 12.5354 16.8332
1 6.3824 11.7425 16.8657
1 7.93701 12.5386 17.6367
1 8.73071 11.7449 17.6367
1 8.722 12.542 16.8238
1 7.96076 11.7511 16.857
1 9.52441 12.5386 17.6367
1 10.3181 11.7449 17.6367
1 10.2996 12.5346 16.8395
1 9.53061 11.7383 16.8406
1 11.1118 12.5386 17.6367
1 11.9055 11.7449 17.6367
1 11.8921 12.5565 16.8285
1 11.1113 11.7517 16.8596
1 12.6992 12.5386 17.6367
1 13.4929 11.7449 17.6367
1 13.4955 12.517 16.8042
1 12.6914 11.7779 16.8104
1 14.2866 12.5386 17.6367
1 15.0803 11.7449 17.6367
1 15.0808 12.5255 16.8441
1 14.2809 11.7283 16.8433
1 15.874 12.5386 17.6367
1 16.6677 11.7449 17.6367
1 16.6625 12.5385 16.8425
1 15.8605 11.7531 16.8394
1 17.4614 12.5386 17.6367
1 18.2551 11.7449 17.6367
1 18.2603 12.5476 16.8385
1 17.4641 11.7178 16.8357
1 19.0488 12.5386 17.6367
1 19.8425 11.7449 17.6367
1 19.8415 12.5352 16.8391
1 19.0404 11.7191 16.8285
1 20.6362 12.5386 17.6367
1 21.4299 11.7449 17.6367
1 21.4225 12.5434 16.8148
1 20.657 11.7596 16.843
1 22.2236 12.5386 17.6367
1 23.0173 11.7449 17.6367
1 23.0105 12.5415 16.8524
1 22.2059 11.7419 16.8392
1 23.811 12.5386 17.6367
1 24.6047 11.7449 17.6367
1 24.592 12.5443 16.8556
1 23.808 11.7228 16.8623
1 25.3984 12.5386 17.6367
1 26.1921 11.7449 17.6367
1 26.178 12.548 16.8459
1 25.391 11.7402 16.8454
1 26.9858 12.5386 17.6367
1 27.7795 11.7449 17.6367
1 27.7647 12.5453 16.8551
1 26.9957 11.7418 16.8458
1 28.5732 12.5386 17.6367
1 29.3669 11.7449 17.6367
1 29.2837 12.5369 16.8285
1 28.5319 11.7253 16.8122
1 30 10.9512 17.6367
1 0.793701 10.1575 17.6367
1 0.83586 10.9587 16.8592
1 0.0559101 10.1567 16.8236
1 1.5874 10.9512 17.6367
1 2.3811 10.1575 17.6367
1 2.38279 10.9371 16.8739
1 1.61148 10.1271 16.8412
1 3.1748 10.9512 17.6367
1 3.9685 10.1575 17.6367
1 3.95447 10.946 16.8583
1 3.17955 10.1312 16.8466
1 4.7622 10.9512 17.6367
1 5.5559 10.1575 17.6367
1 5.60245 10.9575 16.8478
1 4.74688 10.1666 16.8569
1 6.3496 10.9512 17.6367
1 7.1433 10.1575 17.6367
1 7.13946 10.9348 16.8571
1 6.36008 10.1645 16.8627
1 7.93701 10.9512 17.6367
1 8.73071 10.1575 17.6367
1 8.76614 10.9415 16.8519
1 7.95254 10.1746 16.8579
1 9.52441 10.9512 17.6367
1 10.3181 10.1575 17.6367
1 10.3152 10.9449 16.8308
1 9.54568 10.1632 16.869
1 11.1118 10.9512 17.6367
1 11.9055 10.1575 17.6367
1 11.9144 10.9697 16.8576
1 11.0985 10.1565 16.8457
1 12.6992 10.9512 17.6367
1 13.4929 10.1575 17.6367
1 13.47 10.9687 16.8353
1 12.7447 10.1278 16.8414
1 14.2866 10.9512 17.6367
1 15.0803 10.1575 17.6367
1 15.0716 10.9316 16.8443
1 14.2869 10.1376 16.8292
1 15.874 10.9512 17.6367
1 16.6677 10.1575 17.6367
1 16.6765 10.9545 16.8458
1 15.9045 10.1669 16.8707
1 17.4614 10.9512 17.6367
1 18.2551 10.1575 17.6367
1 18.2562 10.9213 16.8636
1 17.4499 10.1462 16.8398
1 19.0488 10.9512 17.6367
1 19.8425 10.1575 17.6367
1 19.8741 10.9304 16.8577
1 19.0794 10.1316 16.8495
1 20.6362 10.9512 17.6367
1 21.4299 10.1575 17.6367
1 21.4389 10.9513 16.847
1 20.6621 10.1462 16.8402
1 22.2236 10.9512 17.6367
1 23.0173 10.1575 17.6367
1 23.017 10.9665 16.8322
1 22.2166 10.1762 16.8575
1 23.811 10.9512 17.6367
1 24.6047 10.1575 17.6367
1 24.614 10.9236 16.8446
1 23.8008 10.1501 16.8464
1 25.3984 10.9512 17.6367
1 26.1921 10.1575 17.6367
1 26.2074 10.9474 16.8386
1 25.3972 10.1775 16.8511
1 26.9858 10.9512 17.6367
1 27.7795 10.1575 17.6367
1 27.7482 10.9493 16.8418
1 26.9708 10.1607 16.8374
1 28.5732 10.9512 17.6367
1 29.3669 10.1575 17.6367
1 29.2827 10.943 16.8089
1 28.5072 10.1343 16.836
1 30 9.36379 17.6367
1 0.793701 8.57009 17.6367
1 0.805652 9.37009 16.8548
1 0.0522612 8.57555 16.7947
1 1.5874 9.36379 17.6367
1 2.3811 8.57009 17.6367
1 2.37255 9.34876 16.8349
1 1.61601 8.55297 16.862
1 3.1748 9.36379 17.6367
1 3.9685 8.57009 17.6367
1 3.97459 9.37663 16.8515
1 3.19008 8.57663 16.8525
1 4.7622 9.36379 17.6367
1 5.5559 8.57009 17.6367
1 5.52635 9.37371 16.8547
1 4.75282 8.56686 16.8622
1 6.3496 9.36379 17.6367
1 7.1433 8.57009 17.6367
1 7.13512 9.39971 16.8281
1 6.35803 8.59967 16.8484
1 7.93701 9.36379 17.6367
1 8.73071 8.57009 17.6367
1 8.72768 9.35054 16.8232
1 7.92302 8.58919 16.8201
1 9.52441 9.36379 17.6367
1 10.3181 8.57009 17.6367
1 10.3354 9.36998 16.8281
1 9.5141 8.56428 16.8392
1 11.1118 9.36379 17.6367
1 11.9055 8.57009 17.6367
1 11.9137 9.35625 16.8494
1 11.119 8.5695 16.8519
1 12.6992 9.36379 17.6367
1 13.4929 8.57009 17.6367
1 13.4999 9.35361 16.8468
1 12.7224 8.57769 16.8401
1 14.2866 9.36379 17.6367
1 15.0803 8.57009 17.6367
1 15.0871 9.36301 16.836
1 14.2732 8.55814 16.8251
1 15.874 9.36379 17.6367
1 16.6677 8.57009 17.6367
1 16.6844 9.34985 16.8517
1 15.8621 8.55471 16.8661
1 17.4614 9.36379 17.6367
1 18.2551 8.57009 17.6367
1 18.2305 9.34838 16.8448
1 17.4587 8.5428 16.8786
1 19.0488 9.36379 17.6367
1 19.8425 8.57009 17.6367
1 19.8719 9.34709 16.8326
1 19.0615 8.56361 16.8453
1 20.6362 9.36379 17.6367
1 21.4299 8.57009 17.6367
1 21.4367 9.36038 16.8497
1 20.6663 8.56992 16.8123
1 22.2236 9.36379 17.6367
1 23.0173 8.57009 17.6367
1 23.0244 9.36186 16.8494
1 22.2278 8.57563 16.8108
1 23.811 9.36379 17.6367
1 24.6047 8.57009 17.6367
1 24.6082 9.36819 16.8449
1 23.8254 8.58507 16.8365
1 25.3984 9.36379 17.6367
1 26.1921 8.57009 17.6367
1 26.1804 9.37474 16.8394
1 25.3586 8.61386 16.8481
1 26.9858 9.36379 17.6367
1 27.7795 8.57009 17.6367
1 27.7581 9.35985 16.8369
1 26.9667 8.56212 16.8611
1 28.5732 9.36379 17.6367
1 29.3669 8.57009 17.6367
1 29.3198 9.36107 16.8129
1 28.5359 8.58734 16.8334
1 30 7.77639 17.6367
1 0.793701 6.98268 17.6367
1 0.824426 7.77128 16.8528
1 0.0694969 6.97649 16.8043
1 1.5874 7.77639 17.6367
1 2.3811 6.98268 17.6367
1 2.39353 7.78034 16.851
1 1.61374 6.98076 16.8684
1 3.1748 7.77639 17.6367
1 3.9685 6.98268 17.6367
1 3.99321 7.792 16.8477
1 3.19016 6.99174 16.8339
1 4.7622 7.77639 17.6367
1 5.5559 6.98268 17.6367
1 5.55793 7.79846 16.861
1 4.77885 6.97605 16.8297
1 6.3496 7.77639 17.6367
1 7.1433 6.98268 17.6367
1 7.13158 7.77721 16.8395
1 6.34062 6.97609 16.8082
1 7.93701 7.77639 17.6367
1 8.73071 6.98268 17.6367
1 8.71695 7.76327 16.8239
1 7.92919 6.99415 16.8438
1 9.52441 7.77639 17.6367
1 10.3181 6.98268 17.6367
1 10.3296 7.78825 16.8559
1 9.54693 6.97768 16.8421
1 11.1118 7.77639 17.6367
1 11.9055 6.98268 17.6367
1 11.8912 7.78069 16.8504
1 11.0866 6.98786 16.8515
1 12.6992 7.77639 17.6367
1 13.4929 6.98268 17.6367
1 13.4855 7.791 16.8267
1 12.6623 6.99312 16.8605
1 14.2866 7.77639 17.6367
1 15.0803 6.98268 17.6367
1 15.1091 7.79422 16.8364
1 14.2862 7.02073 16.831
1 15.874 7.77639 17.6367
1 16.6677 6.98268 17.6367
1 16.641 7.7706 16.8585
1 15.8558 6.96266 16.851
1 17.4614 7.77639 17.6367
1 18.2551 6.98268 17.6367
1 18.2309 7.77847 16.8544
1 17.4427 6.97081 16.8256
1 19.0488 7.77639 17.6367
1 19.8425 6.98268 17.6367
1 19.8525 7.76628 16.8224
1 19.0444 7.0118 16.8382
1 20.6362 7.77639 17.6367
1 21.4299 6.98268 17.6367
1 21.4484 7.79274 16.8343
1 20.6392 6.99186 16.8369
1 22.2236 7.77639 17.6367
1 23.0173 6.98268 17.6367
1 23.0295 7.77436 16.8378
1 22.2269 7.01877 16.8395
1 23.811 7.77639 17.6367
1 24.6047 6.98268 17.6367
1 24.5766 7.79108 16.8502
1 23.7932 7.01183 16.8301
1 25.3984 7.77639 17.6367
1 26.1921 6.98268 17.6367
1 26.1681 7.77754 16.8402
1 25.3689 6.95548 16.8406
1 26.9858 7.77639 17.6367
1 27.7795 6.98268 17.6367
1 27.7383 7.74909 16.8228
1 26.9811 6.98449 16.8316
1 28.5732 7.77639 17.6367
1 29.3669 6.98268 17.6367
1 29.3098 7.789 16.8143
1 28.5354 6.96797 16.8349
1 30 6.18898 17.6367
1 0.793701 5.39528 17.6367
1 0.821399 6.18773 16.821
1 0.0559887 5.40683 16.8057
1 1.5874 6.18898 17.6367
1 2.3811 5.39528 17.6367
1 2.39984 6.17254 16.8303
1 1.59456 5.39447 16.8267
1 3.1748 6.18898 17.6367
1 3.9685 5.39528 17.6367
1 3.98407 6.18025 16.8389
1 3.18143 5.36437 16.8598
1 4.7622 6.18898 17.6367
1 5.5559 5.39528 17.6367
1 5.57589 6.18761 16.8298
1 4.76948 5.38969 16.8471
1 6.3496 6.18898 17.6367
1 7.1433 5.39528 17.6367
1 7.11976 6.2066 16.8373
1 6.37027 5.39307 16.8473
1 7.93701 6.18898 17.6367
1 8.73071 5.39528 17.6367
1 8.74115 6.19858 16.8315
1 7.92466 5.40057 16.8562
1 9.52441 6.18898 17.6367