9376
Atoms. Timestep: 4000000
1 7.5 3.55271e-15 10.5517
1 8.2937 29.2063 10.5517
1 8.29862 29.9315 9.70978
1 7.53803 29.1515 9.731
1 9.0874 3.55271e-15 10.5517
1 9.8811 29.2063 10.5517
1 9.91391 29.9097 9.71414
1 9.10891 29.1726 9.75803
1 10.6748 3.55271e-15 10.5517
1 11.4685 29.2063 10.5517
1 11.4786 29.9519 9.73055
1 10.7053 29.2002 9.74707
1 12.2622 3.55271e-15 10.5517
1 13.0559 29.2063 10.5517
1 13.0532 29.9099 9.71831
1 12.2769 29.2017 9.75671
1 13.8496 3.55271e-15 10.5517
1 14.6433 29.2063 10.5517
1 14.6683 29.9179 9.72641
1 13.8492 29.1825 9.75306
1 15.437 3.55271e-15 10.5517
1 16.2307 29.2063 10.5517
1 16.2482 29.9106 9.70907
1 15.4422 29.1603 9.74371
1 17.0244 3.55271e-15 10.5517
1 17.8181 29.2063 10.5517
1 17.7909 29.9212 9.72213
1 17.0295 29.1452 9.75029
1 18.6118 3.55271e-15 10.5517
1 19.4055 29.2063 10.5517
1 19.4107 29.938 9.73423
1 18.6017 29.1711 9.76164
1 20.1992 3.55271e-15 10.5517
1 20.9929 29.2063 10.5517
1 21.0008 29.9521 9.71145
1 20.2131 29.1677 9.76098
1 21.7866 3.55271e-15 10.5517
1 22.5803 29.2063 10.5517
1 22.5805 29.8964 9.74218
1 21.7852 29.1647 9.74373
1 23.374 3.55271e-15 10.5517
1 24.1677 29.2063 10.5517
1 24.1735 29.9348 9.73865
1 23.3878 29.1776 9.74704
1 24.9614 3.55271e-15 10.5517
1 25.7551 29.2063 10.5517
1 25.727 29.9393 9.73232
1 24.948 29.1752 9.74483
1 26.5488 3.55271e-15 10.5517
1 27.3425 29.2063 10.5517
1 27.3419 29.9067 9.69812
1 26.5193 29.16 9.76748
1 28.1362 3.55271e-15 10.5517
1 28.9299 29.2063 10.5517
1 28.929 29.9549 9.69985
1 28.141 29.1757 9.74588
1 29.7236 3.55271e-15 10.5517
1 0.517315 29.2063 10.5517
1 0.501888 29.945 9.72322
1 29.7229 29.2105 9.73616
1 1.31102 3.55271e-15 10.5517
1 2.10472 29.2063 10.5517
1 2.10023 29.9218 9.75537
1 1.28231 29.2244 9.76206
1 2.89842 3.55271e-15 10.5517
1 3.69212 29.2063 10.5517
1 3.68796 29.9152 9.71963
1 2.9024 29.157 9.76491
1 4.48582 3.55271e-15 10.5517
1 5.27952 29.2063 10.5517
1 5.24606 29.9367 9.71905
1 4.49112 29.1802 9.75638
1 6.07322 3.55271e-15 10.5517
1 6.86692 29.2063 10.5517
1 6.78592 29.9385 9.69613
1 6.06371 29.1848 9.74715
1 7.5 28.4126 10.5517
1 8.2937 27.6189 10.5517
1 8.29069 28.4005 9.75342
1 7.54956 27.5967 9.72885
1 9.0874 28.4126 10.5517
1 9.8811 27.6189 10.5517
1 9.9162 28.4069 9.73891
1 9.11806 27.5839 9.73997
1 10.6748 28.4126 10.5517
1 11.4685 27.6189 10.5517
1 11.4852 28.3728 9.76281
1 10.6748 27.5971 9.76294
1 12.2622 28.4126 10.5517
1 13.0559 27.6189 10.5517
1 13.0641 28.4112 9.74894
1 12.2723 27.57 9.772
1 13.8496 28.4126 10.5517
1 14.6433 27.6189 10.5517
1 14.6427 28.3892 9.76553
1 13.8777 27.6041 9.72791
1 15.437 28.4126 10.5517
1 16.2307 27.6189 10.5517
1 16.2177 28.402 9.76598
1 15.4418 27.6162 9.74902
1 17.0244 28.4126 10.5517
1 17.8181 27.6189 10.5517
1 17.8074 28.3883 9.74888
1 17.0097 27.5913 9.74621
1 18.6118 28.4126 10.5517
1 19.4055 27.6189 10.5517
1 19.3777 28.4024 9.73583
1 18.6205 27.5868 9.73348
1 20.1992 28.4126 10.5517
1 20.9929 27.6189 10.5517
1 20.9895 28.3772 9.75511
1 20.1918 27.5786 9.74611
1 21.7866 28.4126 10.5517
1 22.5803 27.6189 10.5517
1 22.5903 28.3954 9.76526
1 21.8074 27.6114 9.75123
1 23.374 28.4126 10.5517
1 24.1677 27.6189 10.5517
1 24.182 28.4044 9.78031
1 23.3733 27.6008 9.77228
1 24.9614 28.4126 10.5517
1 25.7551 27.6189 10.5517
1 25.7425 28.3862 9.76297
1 24.9773 27.6044 9.76389
1 26.5488 28.4126 10.5517
1 27.3425 27.6189 10.5517
1 27.349 28.4056 9.75833
1 26.5636 27.6219 9.75363
1 28.1362 28.4126 10.5517
1 28.9299 27.6189 10.5517
1 28.9248 28.4169 9.74766
1 28.1243 27.6278 9.76835
1 29.7236 28.4126 10.5517
1 0.517315 27.6189 10.5517
1 0.519828 28.4201 9.75008
1 29.7485 27.6089 9.75662
1 1.31102 28.4126 10.5517
1 2.10472 27.6189 10.5517
1 2.10749 28.3919 9.76994
1 1.29982 27.6108 9.76684
1 2.89842 28.4126 10.5517
1 3.69212 27.6189 10.5517
1 3.67955 28.3792 9.76332
1 2.9094 27.6084 9.76566
1 4.48582 28.4126 10.5517
1 5.27952 27.6189 10.5517
1 5.27281 28.3952 9.76042
1 4.45901 27.588 9.74217
1 6.07322 28.4126 10.5517
1 6.86692 27.6189 10.5517
1 6.773 28.3846 9.70893
1 6.02833 27.6114 9.71664
1 7.5 26.8252 10.5517
1 8.2937 26.0315 10.5517
1 8.32709 26.8223 9.76483
1 7.55041 26.0402 9.73459
1 9.0874 26.8252 10.5517
1 9.8811 26.0315 10.5517
1 9.89143 26.8174 9.76861
1 9.09214 26.0227 9.75429
1 10.6748 26.8252 10.5517
1 11.4685 26.0315 10.5517
1 11.4668 26.8108 9.77035
1 10.6899 26.0266 9.75206
1 12.2622 26.8252 10.5517
1 13.0559 26.0315 10.5517
1 13.0764 26.8112 9.78486
1 12.2629 26.0002 9.75449
1 13.8496 26.8252 10.5517
1 14.6433 26.0315 10.5517
1 14.6485 26.8194 9.72989
1 13.8457 26.0326 9.7534
1 15.437 26.8252 10.5517
1 16.2307 26.0315 10.5517
1 16.2344 26.8045 9.75232
1 15.4406 26.0327 9.74908
1 17.0244 26.8252 10.5517
1 17.8181 26.0315 10.5517
1 17.8294 26.817 9.7492
1 17.0241 25.9987 9.74906
1 18.6118 26.8252 10.5517
1 19.4055 26.0315 10.5517
1 19.383 26.7949 9.74861
1 18.6231 25.9952 9.76209
1 20.1992 26.8252 10.5517
1 20.9929 26.0315 10.5517
1 21.0077 26.8146 9.74912
1 20.2013 26.0165 9.77028
1 21.7866 26.8252 10.5517
1 22.5803 26.0315 10.5517
1 22.5741 26.8096 9.7578
1 21.7973 26.0198 9.76817
1 23.374 26.8252 10.5517
1 24.1677 26.0315 10.5517
1 24.177 26.8327 9.74086
1 23.3924 26.0457 9.72618
1 24.9614 26.8252 10.5517
1 25.7551 26.0315 10.5517
1 25.7683 26.7996 9.74982
1 24.9706 26.0404 9.77755
1 26.5488 26.8252 10.5517
1 27.3425 26.0315 10.5517
1 27.3386 26.7929 9.76509
1 26.5628 26.0202 9.75901
1 28.1362 26.8252 10.5517
1 28.9299 26.0315 10.5517
1 28.9185 26.8195 9.75755
1 28.1368 26.0301 9.76596
1 29.7236 26.8252 10.5517
1 0.517315 26.0315 10.5517
1 0.515288 26.8319 9.76676
1 29.7139 26.0341 9.73723
1 1.31102 26.8252 10.5517
1 2.10472 26.0315 10.5517
1 2.08879 26.8353 9.75485
1 1.3228 26.048 9.76313
1 2.89842 26.8252 10.5517
1 3.69212 26.0315 10.5517
1 3.68952 26.8169 9.74979
1 2.88487 26.0546 9.74539
1 4.48582 26.8252 10.5517
1 5.27952 26.0315 10.5517
1 5.26339 26.819 9.73636
1 4.47753 26.0263 9.74694
1 6.07322 26.8252 10.5517
1 6.86692 26.0315 10.5517
1 6.78009 26.8171 9.72062
1 6.05286 26.0341 9.74836
1 7.5 25.2378 10.5517
1 8.2937 24.4441 10.5517
1 8.29696 25.2476 9.76652
1 7.57616 24.4574 9.69725
1 9.0874 25.2378 10.5517
1 9.8811 24.4441 10.5517
1 9.9087 25.2264 9.7342
1 9.09669 24.4306 9.76684
1 10.6748 25.2378 10.5517
1 11.4685 24.4441 10.5517
1 11.4695 25.2315 9.77144
1 10.6909 24.4319 9.74755
1 12.2622 25.2378 10.5517
1 13.0559 24.4441 10.5517
1 13.0728 25.2368 9.7698
1 12.2706 24.4366 9.74452
1 13.8496 25.2378 10.5517
1 14.6433 24.4441 10.5517
1 14.6477 25.2411 9.75375
1 13.8575 24.4382 9.7469
1 15.437 25.2378 10.5517
1 16.2307 24.4441 10.5517
1 16.2294 25.2291 9.75114
1 15.4451 24.448 9.75739
1 17.0244 25.2378 10.5517
1 17.8181 24.4441 10.5517
1 17.8117 25.212 9.74912
1 17.0232 24.4269 9.74889
1 18.6118 25.2378 10.5517
1 19.4055 24.4441 10.5517
1 19.4119 25.2307 9.73837
1 18.6323 24.4344 9.74745
1 20.1992 25.2378 10.5517
1 20.9929 24.4441 10.5517
1 21.0073 25.2286 9.7633
1 20.2104 24.4237 9.76997
1 21.7866 25.2378 10.5517
1 22.5803 24.4441 10.5517
1 22.6076 25.2249 9.76777
1 21.791 24.4365 9.76785
1 23.374 25.2378 10.5517
1 24.1677 24.4441 10.5517
1 24.1834 25.228 9.75922
1 23.3918 24.4084 9.76029
1 24.9614 25.2378 10.5517
1 25.7551 24.4441 10.5517
1 25.7643 25.2615 9.77472
1 24.9883 24.4292 9.76034
1 26.5488 25.2378 10.5517
1 27.3425 24.4441 10.5517
1 27.3561 25.2114 9.76426
1 26.5371 24.4604 9.7913
1 28.1362 25.2378 10.5517
1 28.9299 24.4441 10.5517
1 28.928 25.219 9.73676
1 28.1358 24.4313 9.75448
1 29.7236 25.2378 10.5517
1 0.517315 24.4441 10.5517
1 0.508742 25.2537 9.78158
1 29.7506 24.4192 9.7772
1 1.31102 25.2378 10.5517
1 2.10472 24.4441 10.5517
1 2.07374 25.2306 9.76096
1 1.31154 24.4433 9.74975
1 2.89842 25.2378 10.5517
1 3.69212 24.4441 10.5517
1 3.68304 25.264 9.77787
1 2.88756 24.4495 9.75079
1 4.48582 25.2378 10.5517
1 5.27952 24.4441 10.5517
1 5.2865 25.2322 9.75357
1 4.47377 24.4404 9.74997
1 6.07322 25.2378 10.5517
1 6.86692 24.4441 10.5517
1 6.79234 25.2533 9.7114
1 6.05801 24.4591 9.74359
1 7.5 23.6504 10.5517
1 8.2937 22.8567 10.5517
1 8.299 23.6294 9.73469
1 7.56999 22.8538 9.72834
1 9.0874 23.6504 10.5517
1 9.8811 22.8567 10.5517
1 9.88321 23.6675 9.7366
1 9.11421 22.8353 9.76799
1 10.6748 23.6504 10.5517
1 11.4685 22.8567 10.5517
1 11.4651 23.6502 9.755
1 10.6679 22.8838 9.75403
1 12.2622 23.6504 10.5517
1 13.0559 22.8567 10.5517
1 13.0533 23.6487 9.76864
1 12.2792 22.8612 9.74204
1 13.8496 23.6504 10.5517
1 14.6433 22.8567 10.5517
1 14.6473 23.6624 9.76172
1 13.8763 22.8569 9.774
1 15.437 23.6504 10.5517
1 16.2307 22.8567 10.5517
1 16.2093 23.6515 9.75184
1 15.4336 22.8577 9.76333
1 17.0244 23.6504 10.5517
1 17.8181 22.8567 10.5517
1 17.846 23.6358 9.77601
1 17.0104 22.8671 9.77713
1 18.6118 23.6504 10.5517
1 19.4055 22.8567 10.5517
1 19.4034 23.6403 9.76016
1 18.6193 22.8453 9.76156
1 20.1992 23.6504 10.5517
1 20.9929 22.8567 10.5517
1 21.0009 23.6215 9.75006
1 20.2072 22.8548 9.76946
1 21.7866 23.6504 10.5517
1 22.5803 22.8567 10.5517
1 22.5701 23.669 9.74249
1 21.7768 22.8507 9.75678
1 23.374 23.6504 10.5517
1 24.1677 22.8567 10.5517
1 24.1779 23.6249 9.75132
1 23.3664 22.8226 9.7591
1 24.9614 23.6504 10.5517
1 25.7551 22.8567 10.5517
1 25.7616 23.6582 9.759
1 24.9793 22.8482 9.7736
1 26.5488 23.6504 10.5517
1 27.3425 22.8567 10.5517
1 27.3273 23.6652 9.75969
1 26.551 22.8434 9.77038
1 28.1362 23.6504 10.5517
1 28.9299 22.8567 10.5517
1 28.9391 23.6512 9.76731
1 28.1089 22.8707 9.75349
1 29.7236 23.6504 10.5517
1 0.517315 22.8567 10.5517
1 0.547591 23.647 9.76249
1 29.7147 22.8277 9.75725
1 1.31102 23.6504 10.5517
1 2.10472 22.8567 10.5517
1 2.09033 23.6431 9.77296
1 1.31203 22.8629 9.76357
1 2.89842 23.6504 10.5517
1 3.69212 22.8567 10.5517
1 3.67323 23.6576 9.73717
1 2.88902 22.8692 9.78885
1 4.48582 23.6504 10.5517
1 5.27952 22.8567 10.5517
1 5.28014 23.668 9.75384
1 4.4692 22.8629 9.76597
1 6.07322 23.6504 10.5517
1 6.86692 22.8567 10.5517
1 6.80616 23.6466 9.70717
1 6.02807 22.8469 9.75033
1 7.5 22.063 10.5517
1 8.2937 21.2693 10.5517
1 8.30199 22.056 9.75822
1 7.5671 21.2483 9.7135
1 9.0874 22.063 10.5517
1 9.8811 21.2693 10.5517
1 9.89351 22.0543 9.75516
1 9.08613 21.2478 9.73201
1 10.6748 22.063 10.5517
1 11.4685 21.2693 10.5517
1 11.4516 22.0573 9.75397
1 10.6904 21.2772 9.7573
1 12.2622 22.063 10.5517
1 13.0559 21.2693 10.5517
1 13.0491 22.0656 9.75681
1 12.2648 21.251 9.77263
1 13.8496 22.063 10.5517
1 14.6433 21.2693 10.5517
1 14.6565 22.0456 9.76373
1 13.8517 21.2828 9.78004
1 15.437 22.063 10.5517
1 16.2307 21.2693 10.5517
1 16.2368 22.0539 9.77645
1 15.4378 21.2611 9.77485
1 17.0244 22.063 10.5517
1 17.8181 21.2693 10.5517
1 17.7954 22.0515 9.76239
1 16.9938 21.2692 9.77361
1 18.6118 22.063 10.5517
1 19.4055 21.2693 10.5517
1 19.4337 22.0524 9.74247
1 18.6093 21.2442 9.8087
1 20.1992 22.063 10.5517
1 20.9929 21.2693 10.5517
1 20.9848 22.0933 9.75452
1 20.2085 21.2554 9.75433
1 21.7866 22.063 10.5517
1 22.5803 21.2693 10.5517
1 22.5824 22.0674 9.76435
1 21.7788 21.256 9.77339
1 23.374 22.063 10.5517
1 24.1677 21.2693 10.5517
1 24.1657 22.0698 9.76054
1 23.4054 21.2742 9.7797
1 24.9614 22.063 10.5517
1 25.7551 21.2693 10.5517
1 25.7628 22.0556 9.75344
1 24.9754 21.2901 9.76757
1 26.5488 22.063 10.5517
1 27.3425 21.2693 10.5517
1 27.3233 22.0635 9.75752
1 26.57 21.2705 9.74335
1 28.1362 22.063 10.5517
1 28.9299 21.2693 10.5517
1 28.9374 22.0864 9.78009
1 28.1541 21.2816 9.73909
1 29.7236 22.063 10.5517
1 0.517315 21.2693 10.5517
1 0.511676 22.0681 9.76359
1 29.7336 21.2834 9.77753
1 1.31102 22.063 10.5517
1 2.10472 21.2693 10.5517
1 2.0857 22.0788 9.75172
1 1.32304 21.2956 9.74985
1 2.89842 22.063 10.5517
1 3.69212 21.2693 10.5517
1 3.69446 22.0692 9.77402
1 2.86534 21.2954 9.74168
1 4.48582 22.063 10.5517
1 5.27952 21.2693 10.5517
1 5.26501 22.0572 9.76617
1 4.47675 21.2595 9.75929
1 6.07322 22.063 10.5517
1 6.86692 21.2693 10.5517
1 6.79051 22.0522 9.71141
1 6.05203 21.2496 9.7508
1 7.5 20.4756 10.5517
1 8.2937 19.6819 10.5517
1 8.32663 20.4841 9.74768
1 7.56947 19.6706 9.70876
1 9.0874 20.4756 10.5517
1 9.8811 19.6819 10.5517
1 9.88489 20.4914 9.74798
1 9.14018 19.6576 9.77239
1 10.6748 20.4756 10.5517
1 11.4685 19.6819 10.5517
1 11.4761 20.4808 9.77012
1 10.6805 19.696 9.75364
1 12.2622 20.4756 10.5517
1 13.0559 19.6819 10.5517
1 13.0336 20.4923 9.7751
1 12.2581 19.6856 9.75718
1 13.8496 20.4756 10.5517
1 14.6433 19.6819 10.5517
1 14.6572 20.4848 9.75848
1 13.8534 19.7024 9.76613
1 15.437 20.4756 10.5517
1 16.2307 19.6819 10.5517
1 16.2262 20.4784 9.76559
1 15.4451 19.6753 9.74819
1 17.0244 20.4756 10.5517
1 17.8181 19.6819 10.5517
1 17.8144 20.4519 9.77055
1 17.0071 19.6922 9.7651
1 18.6118 20.4756 10.5517
1 19.4055 19.6819 10.5517
1 19.4144 20.4887 9.76548
1 18.5893 19.6719 9.78798
1 20.1992 20.4756 10.5517
1 20.9929 19.6819 10.5517
1 20.9946 20.45 9.74634
1 20.2095 19.704 9.73797
1 21.7866 20.4756 10.5517
1 22.5803 19.6819 10.5517
1 22.6136 20.483 9.77702
1 21.764 19.6597 9.75841
1 23.374 20.4756 10.5517
1 24.1677 19.6819 10.5517
1 24.1805 20.5153 9.77896
1 23.3796 19.6967 9.77411
1 24.9614 20.4756 10.5517
1 25.7551 19.6819 10.5517
1 25.7629 20.4849 9.77781
1 24.9423 19.7055 9.78486
1 26.5488 20.4756 10.5517
1 27.3425 19.6819 10.5517
1 27.3539 20.4696 9.77903
1 26.5463 19.672 9.7665
1 28.1362 20.4756 10.5517
1 28.9299 19.6819 10.5517
1 28.944 20.4893 9.73427
1 28.1368 19.7107 9.75697
1 29.7236 20.4756 10.5517
1 0.517315 19.6819 10.5517
1 0.506669 20.4888 9.76033
1 29.7124 19.6932 9.75104
1 1.31102 20.4756 10.5517
1 2.10472 19.6819 10.5517
1 2.09863 20.4784 9.75606
1 1.28575 19.6851 9.75878
1 2.89842 20.4756 10.5517
1 3.69212 19.6819 10.5517
1 3.67379 20.4786 9.77789
1 2.88354 19.664 9.76238
1 4.48582 20.4756 10.5517
1 5.27952 19.6819 10.5517
1 5.26827 20.4664 9.76076
1 4.49888 19.6643 9.75536
1 6.07322 20.4756 10.5517
1 6.86692 19.6819 10.5517
1 6.80752 20.4908 9.70989
1 6.06112 19.6965 9.72668
1 7.5 18.8882 10.5517
1 8.2937 18.0945 10.5517
1 8.33402 18.8959 9.73697
1 7.56917 18.1013 9.70712
1 9.0874 18.8882 10.5517
1 9.8811 18.0945 10.5517
1 9.91161 18.8835 9.73423
1 9.0945 18.0979 9.74179
1 10.6748 18.8882 10.5517
1 11.4685 18.0945 10.5517
1 11.4999 18.8866 9.75301
1 10.6912 18.0991 9.77126
1 12.2622 18.8882 10.5517
1 13.0559 18.0945 10.5517
1 13.0474 18.8896 9.76892
1 12.2596 18.0795 9.77715
1 13.8496 18.8882 10.5517
1 14.6433 18.0945 10.5517
1 14.6545 18.913 9.75675
1 13.8779 18.0944 9.75464
1 15.437 18.8882 10.5517
1 16.2307 18.0945 10.5517
1 16.2162 18.9086 9.77673
1 15.4418 18.092 9.76195
1 17.0244 18.8882 10.5517
1 17.8181 18.0945 10.5517
1 17.8028 18.8834 9.76544
1 16.9918 18.113 9.77977
1 18.6118 18.8882 10.5517
1 19.4055 18.0945 10.5517
1 19.4356 18.9199 9.7627
1 18.5988 18.1116 9.75981
1 20.1992 18.8882 10.5517
1 20.9929 18.0945 10.5517
1 20.9993 18.8818 9.75526
1 20.1876 18.0872 9.74002
1 21.7866 18.8882 10.5517
1 22.5803 18.0945 10.5517
1 22.5885 18.8863 9.77865
1 21.8044 18.0887 9.76815
1 23.374 18.8882 10.5517
1 24.1677 18.0945 10.5517
1 24.1736 18.8805 9.75431
1 23.3862 18.0804 9.77931
1 24.9614 18.8882 10.5517
1 25.7551 18.0945 10.5517
1 25.7574 18.9178 9.74749
1 24.9641 18.0876 9.75346
1 26.5488 18.8882 10.5517
1 27.3425 18.0945 10.5517
1 27.3535 18.8821 9.77299
1 26.5438 18.1036 9.78694
1 28.1362 18.8882 10.5517
1 28.9299 18.0945 10.5517
1 28.9287 18.8782 9.76263
1 28.1372 18.0873 9.76097
1 29.7236 18.8882 10.5517
1 0.517315 18.0945 10.5517
1 0.523114 18.8845 9.76334
1 29.7215 18.0814 9.76147
1 1.31102 18.8882 10.5517
1 2.10472 18.0945 10.5517
1 2.0964 18.8853 9.753
1 1.28568 18.1261 9.7718
1 2.89842 18.8882 10.5517
1 3.69212 18.0945 10.5517
1 3.69409 18.8807 9.7723
1 2.88697 18.117 9.74813
1 4.48582 18.8882 10.5517
1 5.27952 18.0945 10.5517
1 5.29514 18.8687 9.75398
1 4.46436 18.1092 9.77659
1 6.07322 18.8882 10.5517
1 6.86692 18.0945 10.5517
1 6.78748 18.9001 9.70424
1 6.03118 18.0782 9.75148
1 7.5 17.3008 10.5517
1 8.2937 16.5071 10.5517
1 8.30111 17.3185 9.76183
1 7.56359 16.4966 9.7057
1 9.0874 17.3008 10.5517
1 9.8811 16.5071 10.5517
1 9.8825 17.3153 9.75521
1 9.11976 16.5281 9.74022
1 10.6748 17.3008 10.5517
1 11.4685 16.5071 10.5517
1 11.4874 17.3141 9.76866
1 10.6619 16.536 9.78047
1 12.2622 17.3008 10.5517
1 13.0559 16.5071 10.5517
1 13.0657 17.2902 9.7572
1 12.2924 16.51 9.753
1 13.8496 17.3008 10.5517
1 14.6433 16.5071 10.5517
1 14.6565 17.3412 9.74689
1 13.8512 16.5043 9.79543
1 15.437 17.3008 10.5517
1 16.2307 16.5071 10.5517
1 16.2183 17.2944 9.7693
1 15.431 16.4848 9.76203
1 17.0244 17.3008 10.5517
1 17.8181 16.5071 10.5517
1 17.8163 17.3095 9.77637
1 17.0107 16.4909 9.74676
1 18.6118 17.3008 10.5517
1 19.4055 16.5071 10.5517
1 19.4076 17.2987 9.76668
1 18.6125 16.4915 9.75162
1 20.1992 17.3008 10.5517
1 20.9929 16.5071 10.5517
1 21.0025 17.2883 9.77095
1 20.2311 16.4875 9.74931
1 21.7866 17.3008 10.5517
1 22.5803 16.5071 10.5517
1 22.5911 17.2897 9.76828
1 21.7943 16.4976 9.77074
1 23.374 17.3008 10.5517
1 24.1677 16.5071 10.5517
1 24.1717 17.3009 9.7375
1 23.382 16.4905 9.75673
1 24.9614 17.3008 10.5517
1 25.7551 16.5071 10.5517
1 25.7538 17.2894 9.75922
1 24.979 16.4938 9.7604
1 26.5488 17.3008 10.5517
1 27.3425 16.5071 10.5517
1 27.338 17.2598 9.76843
1 26.529 16.5056 9.76445
1 28.1362 17.3008 10.5517
1 28.9299 16.5071 10.5517
1 28.9458 17.2928 9.75544
1 28.1253 16.5115 9.77427
1 29.7236 17.3008 10.5517
1 0.517315 16.5071 10.5517
1 0.515901 17.3153 9.77655
1 29.7294 16.5113 9.76794
1 1.31102 17.3008 10.5517
1 2.10472 16.5071 10.5517
1 2.08835 17.3186 9.77916
1 1.31575 16.4957 9.73625
1 2.89842 17.3008 10.5517
1 3.69212 16.5071 10.5517
1 3.68438 17.3253 9.74509
1 2.90131 16.5025 9.75936
1 4.48582 17.3008 10.5517
1 5.27952 16.5071 10.5517
1 5.2333 17.3335 9.77825
1 4.4554 16.5091 9.76258
1 6.07322 17.3008 10.5517
1 6.86692 16.5071 10.5517
1 6.80735 17.3268 9.70871
1 6.04461 16.5114 9.77918
1 7.5 15.7134 10.5517
1 8.2937 14.9197 10.5517
1 8.33224 15.7277 9.73444
1 7.56797 14.8954 9.73137
1 9.0874 15.7134 10.5517
1 9.8811 14.9197 10.5517
1 9.89513 15.7092 9.745
1 9.12284 14.9199 9.75065
1 10.6748 15.7134 10.5517
1 11.4685 14.9197 10.5517
1 11.4728 15.7223 9.75705
1 10.6869 14.9205 9.75037
1 12.2622 15.7134 10.5517
1 13.0559 14.9197 10.5517
1 13.0506 15.72 9.77469
1 12.2853 14.939 9.78748
1 13.8496 15.7134 10.5517
1 14.6433 14.9197 10.5517
1 14.6545 15.692 9.77389
1 13.8484 14.8948 9.75717
1 15.437 15.7134 10.5517
1 16.2307 14.9197 10.5517
1 16.2337 15.7039 9.7495
1 15.4576 14.9175 9.75122
1 17.0244 15.7134 10.5517
1 17.8181 14.9197 10.5517
1 17.835 15.7039 9.74729
1 17.0123 14.919 9.76386
1 18.6118 15.7134 10.5517
1 19.4055 14.9197 10.5517
1 19.4288 15.6984 9.75387
1 18.6081 14.912 9.78997
1 20.1992 15.7134 10.5517
1 20.9929 14.9197 10.5517
1 20.9871 15.719 9.74019
1 20.1943 14.9033 9.74526
1 21.7866 15.7134 10.5517
1 22.5803 14.9197 10.5517
1 22.5628 15.7162 9.77915
1 21.778 14.9527 9.75669
1 23.374 15.7134 10.5517
1 24.1677 14.9197 10.5517
1 24.169 15.7129 9.76819
1 23.3765 14.9162 9.78089
1 24.9614 15.7134 10.5517
1 25.7551 14.9197 10.5517
1 25.7353 15.7044 9.78919
1 24.9646 14.9002 9.77458
1 26.5488 15.7134 10.5517
1 27.3425 14.9197 10.5517
1 27.3519 15.7068 9.77612
1 26.5486 14.9291 9.74518
1 28.1362 15.7134 10.5517
1 28.9299 14.9197 10.5517
1 28.9321 15.6996 9.75531
1 28.1415 14.9011 9.79551
1 29.7236 15.7134 10.5517
1 0.517315 14.9197 10.5517
1 0.544098 15.7256 9.73345
1 29.7381 14.9132 9.75927
1 1.31102 15.7134 10.5517
1 2.10472 14.9197 10.5517
1 2.09396 15.738 9.74973
1 1.29755 14.9315 9.76644
1 2.89842 15.7134 10.5517
1 3.69212 14.9197 10.5517
1 3.67955 15.702 9.77315
1 2.8835 14.9464 9.78008
1 4.48582 15.7134 10.5517
1 5.27952 14.9197 10.5517
1 5.27404 15.7511 9.77879
1 4.50266 14.9247 9.77587
1 6.07322 15.7134 10.5517
1 6.86692 14.9197 10.5517
1 6.81097 15.692 9.71197
1 6.02989 14.9374 9.74314
1 7.5 14.126 10.5517
1 8.2937 13.3323 10.5517
1 8.35348 14.1465 9.74854
1 7.56115 13.3499 9.70494
1 9.0874 14.126 10.5517
1 9.8811 13.3323 10.5517
1 9.88469 14.1289 9.77498
1 9.10226 13.3398 9.73975
1 10.6748 14.126 10.5517
1 11.4685 13.3323 10.5517
1 11.4859 14.132 9.76328
1 10.7157 13.3404 9.735
1 12.2622 14.126 10.5517
1 13.0559 13.3323 10.5517
1 13.064 14.1374 9.75474
1 12.2978 13.3393 9.72981
1 13.8496 14.126 10.5517
1 14.6433 13.3323 10.5517
1 14.6303 14.1087 9.75115
1 13.8253 13.3171 9.76811
1 15.437 14.126 10.5517
1 16.2307 13.3323 10.5517
1 16.2337 14.1054 9.76782
1 15.4496 13.3211 9.76492
1 17.0244 14.126 10.5517
1 17.8181 13.3323 10.5517
1 17.8148 14.142 9.7858
1 17.0426 13.3376 9.76211
1 18.6118 14.126 10.5517
1 19.4055 13.3323 10.5517
1 19.4215 14.1475 9.77346
1 18.5928 13.3501 9.76648
1 20.1992 14.126 10.5517
1 20.9929 13.3323 10.5517
1 20.976 14.1229 9.7679
1 20.2042 13.3223 9.77215
1 21.7866 14.126 10.5517
1 22.5803 13.3323 10.5517
1 22.5679 14.1136 9.75026
1 21.7859 13.345 9.78346
1 23.374 14.126 10.5517
1 24.1677 13.3323 10.5517
1 24.1712 14.1069 9.77272
1 23.3842 13.341 9.76532
1 24.9614 14.126 10.5517
1 25.7551 13.3323 10.5517
1 25.7755 14.1148 9.76881
1 24.9554 13.3265 9.74531
1 26.5488 14.126 10.5517
1 27.3425 13.3323 10.5517
1 27.3397 14.1173 9.77358
1 26.5655 13.3173 9.75593
1 28.1362 14.126 10.5517
1 28.9299 13.3323 10.5517
1 28.9126 14.1297 9.76512
1 28.1284 13.3034 9.7463
1 29.7236 14.126 10.5517
1 0.517315 13.3323 10.5517
1 0.53048 14.1093 9.74261
1 29.7139 13.3409 9.74447
1 1.31102 14.126 10.5517
1 2.10472 13.3323 10.5517
1 2.09019 14.1081 9.74425
1 1.308 13.3323 9.73272
1 2.89842 14.126 10.5517
1 3.69212 13.3323 10.5517
1 3.68623 14.1352 9.74791
1 2.91667 13.3279 9.76969
1 4.48582 14.126 10.5517
1 5.27952 13.3323 10.5517
1 5.26541 14.1119 9.76239
1 4.47069 13.3692 9.77976
1 6.07322 14.126 10.5517
1 6.86692 13.3323 10.5517
1 6.79067 14.1193 9.7467
1 6.04579 13.3323 9.76278
1 7.5 12.5386 10.5517
1 8.2937 11.7449 10.5517
1 8.31848 12.5534 9.7555
1 7.57266 11.7489 9.7222
1 9.0874 12.5386 10.5517
1 9.8811 11.7449 10.5517
1 9.88875 12.5436 9.73563
1 9.07133 11.7499 9.7356
1 10.6748 12.5386 10.5517
1 11.4685 11.7449 10.5517
1 11.5016 12.5189 9.7449
1 10.6822 11.7666 9.73263
1 12.2622 12.5386 10.5517
1 13.0559 11.7449 10.5517
1 13.0638 12.5102 9.75418
1 12.2297 11.7368 9.7789
1 13.8496 12.5386 10.5517
1 14.6433 11.7449 10.5517
1 14.66 12.5717 9.75544
1 13.865 11.7438 9.72993
1 15.437 12.5386 10.5517
1 16.2307 11.7449 10.5517
1 16.2486 12.5277 9.74782
1 15.4495 11.7247 9.7517
1 17.0244 12.5386 10.5517
1 17.8181 11.7449 10.5517
1 17.8258 12.5246 9.7427
1 17.0154 11.73 9.74762
1 18.6118 12.5386 10.5517
1 19.4055 11.7449 10.5517
1 19.4166 12.563 9.74409
1 18.6164 11.761 9.77503
1 20.1992 12.5386 10.5517
1 20.9929 11.7449 10.5517
1 20.9911 12.5377 9.74095
1 20.2077 11.7251 9.76687
1 21.7866 12.5386 10.5517
1 22.5803 11.7449 10.5517
1 22.592 12.5464 9.77816
1 21.7792 11.746 9.76201
1 23.374 12.5386 10.5517
1 24.1677 11.7449 10.5517
1 24.1421 12.5385 9.76605
1 23.3891 11.7332 9.76255
1 24.9614 12.5386 10.5517
1 25.7551 11.7449 10.5517
1 25.7486 12.5345 9.77929
1 24.9548 11.7215 9.75997
1 26.5488 12.5386 10.5517
1 27.3425 11.7449 10.5517
1 27.3355 12.524 9.77001
1 26.5265 11.7468 9.7562
1 28.1362 12.5386 10.5517
1 28.9299 11.7449 10.5517
1 28.9369 12.5231 9.77402
1 28.1552 11.7423 9.77428
1 29.7236 12.5386 10.5517
1 0.517315 11.7449 10.5517
1 0.519479 12.5346 9.75504
1 29.7032 11.7551 9.7574
1 1.31102 12.5386 10.5517
1 2.10472 11.7449 10.5517
1 2.0941 12.5445 9.75679
1 1.29968 11.7234 9.77669
1 2.89842 12.5386 10.5517
1 3.69212 11.7449 10.5517
1 3.6928 12.547 9.76376
1 2.90054 11.7366 9.76964
1 4.48582 12.5386 10.5517
1 5.27952 11.7449 10.5517
1 5.24413 12.5333 9.75118
1 4.48137 11.7523 9.76475
1 6.07322 12.5386 10.5517
1 6.86692 11.7449 10.5517
1 6.7962 12.5321 9.72407
1 6.03745 11.7399 9.75552
1 7.5 10.9512 10.5517
1 8.2937 10.1575 10.5517
1 8.33087 10.9628 9.75927
1 7.57342 10.1484 9.74585
1 9.0874 10.9512 10.5517
1 9.8811 10.1575 10.5517
1 9.86977 10.9627 9.7701
1 9.11668 10.1505 9.725
1 10.6748 10.9512 10.5517
1 11.4685 10.1575 10.5517
1 11.4572 10.96 9.74164
1 10.6908 10.1509 9.76118
1 12.2622 10.9512 10.5517
1 13.0559 10.1575 10.5517
1 13.0439 10.9338 9.76129
1 12.2771 10.1746 9.76462
1 13.8496 10.9512 10.5517
1 14.6433 10.1575 10.5517
1 14.6594 10.9359 9.77074
1 13.8688 10.1424 9.76808
1 15.437 10.9512 10.5517
1 16.2307 10.1575 10.5517
1 16.2424 10.9348 9.76004
1 15.453 10.1422 9.75026
1 17.0244 10.9512 10.5517
1 17.8181 10.1575 10.5517
1 17.8237 10.9362 9.76578
1 17.0347 10.1461 9.75816
1 18.6118 10.9512 10.5517
1 19.4055 10.1575 10.5517
1 19.4051 10.953 9.76982
1 18.6287 10.1459 9.77197
1 20.1992 10.9512 10.5517
1 20.9929 10.1575 10.5517
1 20.9946 10.9489 9.73862
1 20.1956 10.1727 9.77154
1 21.7866 10.9512 10.5517
1 22.5803 10.1575 10.5517
1 22.5684 10.9417 9.76142
1 21.8103 10.1496 9.76305
1 23.374 10.9512 10.5517
1 24.1677 10.1575 10.5517
1 24.1629 10.9593 9.75433
1 23.3558 10.1546 9.76721
1 24.9614 10.9512 10.5517
1 25.7551 10.1575 10.5517
1 25.7285 10.9576 9.7549
1 24.9545 10.1589 9.76838
1 26.5488 10.9512 10.5517
1 27.3425 10.1575 10.5517
1 27.3175 10.9492 9.76785
1 26.5524 10.1449 9.76373
1 28.1362 10.9512 10.5517
1 28.9299 10.1575 10.5517
1 28.9289 10.9534 9.75964
1 28.1181 10.1463 9.75949
1 29.7236 10.9512 10.5517
1 0.517315 10.1575 10.5517
1 0.50019 10.9286 9.77976
1 29.7235 10.1402 9.75799
1 1.31102 10.9512 10.5517
1 2.10472 10.1575 10.5517
1 2.10028 10.9453 9.75631
1 1.30011 10.1546 9.7614
1 2.89842 10.9512 10.5517
1 3.69212 10.1575 10.5517
1 3.71614 10.956 9.77529
1 2.88122 10.1534 9.77482
1 4.48582 10.9512 10.5517
1 5.27952 10.1575 10.5517
1 5.24596 10.9333 9.76949
1 4.45946 10.1508 9.74688
1 6.07322 10.9512 10.5517
1 6.86692 10.1575 10.5517
1 6.84432 10.933 9.72843
1 6.06204 10.1668 9.75598
1 7.5 9.36379 10.5517
1 8.2937 8.57009 10.5517
1 8.34326 9.36489 9.75317
1 7.55997 8.56883 9.72133
1 9.0874 9.36379 10.5517
1 9.8811 8.57009 10.5517
1 9.89108 9.37615 9.76896
1 9.1156 8.581 9.75887
1 10.6748 9.36379 10.5517
1 11.4685 8.57009 10.5517
1 11.492 9.36283 9.78039
1 10.6934 8.56733 9.73137
1 12.2622 9.36379 10.5517
1 13.0559 8.57009 10.5517
1 13.0579 9.34923 9.76239
1 12.2632 8.55799 9.78132
1 13.8496 9.36379 10.5517
1 14.6433 8.57009 10.5517
1 14.6569 9.3344 9.75231
1 13.8399 8.56812 9.77086
1 15.437 9.36379 10.5517
1 16.2307 8.57009 10.5517
1 16.2484 9.36552 9.75631
1 15.448 8.55844 9.78666
1 17.0244 9.36379 10.5517
1 17.8181 8.57009 10.5517
1 17.8362 9.36563 9.74825
1 17.073 8.56026 9.74074
1 18.6118 9.36379 10.5517
1 19.4055 8.57009 10.5517
1 19.4203 9.34544 9.75142
1 18.6308 8.59096 9.71555
1 20.1992 9.36379 10.5517
1 20.9929 8.57009 10.5517
1 21.002 9.36472 9.7511
1 20.2225 8.56286 9.75195
1 21.7866 9.36379 10.5517
1 22.5803 8.57009 10.5517
1 22.5846 9.37896 9.74682
1 21.7846 8.58997 9.75098
1 23.374 9.36379 10.5517
1 24.1677 8.57009 10.5517
1 24.1678 9.36675 9.75125
1 23.3618 8.57477 9.77256
1 24.9614 9.36379 10.5517
1 25.7551 8.57009 10.5517
1 25.7658 9.35349 9.75343
1 24.9601 8.58659 9.77902
1 26.5488 9.36379 10.5517
1 27.3425 8.57009 10.5517
1 27.3494 9.37891 9.76885
1 26.5695 8.57291 9.74949
1 28.1362 9.36379 10.5517
1 28.9299 8.57009 10.5517
1 28.902 9.36498 9.7591
1 28.1238 8.53245 9.76608
1 29.7236 9.36379 10.5517
1 0.517315 8.57009 10.5517
1 0.518347 9.36237 9.75253
1 29.7301 8.59444 9.77466
1 1.31102 9.36379 10.5517
1 2.10472 8.57009 10.5517
1 2.10532 9.36573 9.73857
1 1.30535 8.58726 9.76347
1 2.89842 9.36379 10.5517
1 3.69212 8.57009 10.5517
1 3.66588 9.37883 9.75875
1 2.89127 8.5829 9.74834
1 4.48582 9.36379 10.5517
1 5.27952 8.57009 10.5517
1 5.2398 9.37222 9.75751
1 4.46879 8.56961 9.7371
1 6.07322 9.36379 10.5517
1 6.86692 8.57009 10.5517
1 6.82345 9.35465 9.71666
1 6.03638 8.60435 9.73472
1 7.5 7.77639 10.5517
1 8.2937 6.98268 10.5517
1 8.34095 7.79055 9.74011
1 7.59069 6.97992 9.71216
1 9.0874 7.77639 10.5517
1 9.8811 6.98268 10.5517
1 9.88699 7.79286 9.763
1 9.08521 6.99849 9.76486
1 10.6748 7.77639 10.5517
1 11.4685 6.98268 10.5517
1 11.4677 7.78584 9.75021
1 10.6764 7.00902 9.74771
1 12.2622 7.77639 10.5517
1 13.0559 6.98268 10.5517
1 13.0633 7.78731 9.74308
1 12.2696 7.01293 9.74619
1 13.8496 7.77639 10.5517
1 14.6433 6.98268 10.5517
1 14.6118 7.78526 9.76983
1 13.8162 6.9669 9.76876
1 15.437 7.77639 10.5517
1 16.2307 6.98268 10.5517
1 16.218 7.7732 9.75599
1 15.4329 6.97318 9.73827
1 17.0244 7.77639 10.5517
1 17.8181 6.98268 10.5517
1 17.8603 7.78921 9.75683
1 17.0444 7.01102 9.7679
1 18.6118 7.77639 10.5517
1 19.4055 6.98268 10.5517
1 19.4192 7.775 9.7521
1 18.6229 7.01709 9.73939
1 20.1992 7.77639 10.5517
1 20.9929 6.98268 10.5517
1 21.0143 7.78608 9.74685
1 20.229 7.02382 9.76939
1 21.7866 7.77639 10.5517
1 22.5803 6.98268 10.5517
1 22.5497 7.78381 9.76638
1 21.7649 6.98023 9.74876
1 23.374 7.77639 10.5517
1 24.1677 6.98268 10.5517
1 24.1482 7.76623 9.76273
1 23.3684 6.96011 9.76742
1 24.9614 7.77639 10.5517
1 25.7551 6.98268 10.5517
1 25.7684 7.77631 9.72481
1 24.9793 6.97411 9.76661
1 26.5488 7.77639 10.5517
1 27.3425 6.98268 10.5517
1 27.3349 7.77814 9.75684
1 26.5632 6.9784 9.7443
1 28.1362 7.77639 10.5517
1 28.9299 6.98268 10.5517
1 28.9414 7.78333 9.77002
1 28.1359 6.97151 9.75817
1 29.7236 7.77639 10.5517
1 0.517315 6.98268 10.5517
1 0.519595 7.77943 9.76794
1 29.7228 6.97434 9.7716
1 1.31102 7.77639 10.5517
1 2.10472 6.98268 10.5517
1 2.1107 7.8077 9.77554
1 1.29945 6.98773 9.74902
1 2.89842 7.77639 10.5517
1 3.69212 6.98268 10.5517
1 3.69022 7.77803 9.76246
1 2.88509 6.96892 9.7474
1 4.48582 7.77639 10.5517
1 5.27952 6.98268 10.5517
1 5.26226 7.76638 9.72761
1 4.45874 6.98362 9.72854
1 6.07322 7.77639 10.5517
1 6.86692 6.98268 10.5517
1 6.78352 7.76926 9.73831
1 6.05522 6.97433 9.76566
1 7.5 6.18898 10.5517
1 8.2937 5.39528 10.5517
1 8.32509 6.19712 9.74671
1 7.59002 5.40452 9.75538
1 9.0874 6.18898 10.5517
1 9.8811 5.39528 10.5517
1 9.89296 6.18871 9.7617
1 9.1177 5.39078 9.757
1 10.6748 6.18898 10.5517
1 11.4685 5.39528 10.5517
1 11.4942 6.21316 9.76327
1 10.6847 5.37429 9.73018
1 12.2622 6.18898 10.5517
1 13.0559 5.39528 10.5517
1 13.0307 6.18753 9.77806
1 12.2622 5.40551 9.76524
1 13.8496 6.18898 10.5517
1 14.6433 5.39528 10.5517
1 14.6262 6.17056 9.75454
1 13.8526 5.41632 9.75653
1 15.437 6.18898 10.5517
1 16.2307 5.39528 10.5517
1 16.2358 6.18979 9.75776
1 15.4527 5.41965 9.75552