12976
Atoms. Timestep: 4000000
1 30 7.10543e-15 15.3021
1 0.793701 29.2063 15.3021
1 0.822018 29.945 14.4659
1 0.0728171 29.2025 14.4525
1 1.5874 7.10543e-15 15.3021
1 2.3811 29.2063 15.3021
1 2.42021 29.9321 14.4937
1 1.59437 29.2246 14.5049
1 3.1748 7.10543e-15 15.3021
1 3.9685 29.2063 15.3021
1 3.96673 29.9176 14.4696
1 3.18566 29.1604 14.5011
1 4.7622 7.10543e-15 15.3021
1 5.5559 29.2063 15.3021
1 5.5319 29.9465 14.4846
1 4.77912 29.1873 14.529
1 6.3496 7.10543e-15 15.3021
1 7.1433 29.2063 15.3021
1 7.1558 29.9466 14.4985
1 6.35643 29.1836 14.5381
1 7.93701 7.10543e-15 15.3021
1 8.73071 29.2063 15.3021
1 8.71438 29.9329 14.4617
1 7.92611 29.1597 14.5262
1 9.52441 7.10543e-15 15.3021
1 10.3181 29.2063 15.3021
1 10.3302 29.8999 14.4613
1 9.52366 29.178 14.5057
1 11.1118 7.10543e-15 15.3021
1 11.9055 29.2063 15.3021
1 11.9063 29.9499 14.4866
1 11.1222 29.1958 14.4889
1 12.6992 7.10543e-15 15.3021
1 13.4929 29.2063 15.3021
1 13.4923 29.9116 14.4587
1 12.7008 29.2028 14.4972
1 14.2866 7.10543e-15 15.3021
1 15.0803 29.2063 15.3021
1 15.0991 29.9116 14.4891
1 14.2707 29.186 14.499
1 15.874 7.10543e-15 15.3021
1 16.6677 29.2063 15.3021
1 16.6848 29.9168 14.4602
1 15.8749 29.167 14.4951
1 17.4614 7.10543e-15 15.3021
1 18.2551 29.2063 15.3021
1 18.2484 29.9111 14.4783
1 17.4819 29.1512 14.5075
1 19.0488 7.10543e-15 15.3021
1 19.8425 29.2063 15.3021
1 19.862 29.9439 14.4758
1 19.0557 29.1596 14.5131
1 20.6362 7.10543e-15 15.3021
1 21.4299 29.2063 15.3021
1 21.438 29.9406 14.4551
1 20.6544 29.1703 14.4978
1 22.2236 7.10543e-15 15.3021
1 23.0173 29.2063 15.3021
1 23.0196 29.9016 14.4933
1 22.2284 29.1588 14.4776
1 23.811 7.10543e-15 15.3021
1 24.6047 29.2063 15.3021
1 24.6033 29.9282 14.4843
1 23.8312 29.1749 14.4831
1 25.3984 7.10543e-15 15.3021
1 26.1921 29.2063 15.3021
1 26.1609 29.9444 14.4721
1 25.3854 29.1778 14.4946
1 26.9858 7.10543e-15 15.3021
1 27.7795 29.2063 15.3021
1 27.7622 29.9053 14.4583
1 26.9459 29.1632 14.5244
1 28.5732 7.10543e-15 15.3021
1 29.3669 29.2063 15.3021
1 29.3011 29.9469 14.4493
1 28.5422 29.1625 14.4939
1 30 28.4126 15.3021
1 0.793701 27.6189 15.3021
1 0.838842 28.4143 14.5138
1 0.0755922 27.6024 14.4476
1 1.5874 28.4126 15.3021
1 2.3811 27.6189 15.3021
1 2.40853 28.3957 14.5147
1 1.59001 27.6068 14.4956
1 3.1748 28.4126 15.3021
1 3.9685 27.6189 15.3021
1 3.96524 28.3832 14.5174
1 3.17672 27.6114 14.5099
1 4.7622 28.4126 15.3021
1 5.5559 27.6189 15.3021
1 5.55196 28.3951 14.5308
1 4.75049 27.585 14.511
1 6.3496 28.4126 15.3021
1 7.1433 27.6189 15.3021
1 7.13114 28.3897 14.5082
1 6.33276 27.6173 14.5006
1 7.93701 28.4126 15.3021
1 8.73071 27.6189 15.3021
1 8.69974 28.4016 14.5109
1 7.93601 27.5936 14.5251
1 9.52441 28.4126 15.3021
1 10.3181 27.6189 15.3021
1 10.3358 28.4145 14.4869
1 9.52811 27.5946 14.5034
1 11.1118 28.4126 15.3021
1 11.9055 27.6189 15.3021
1 11.9053 28.3769 14.5047
1 11.1069 27.6028 14.5015
1 12.6992 28.4126 15.3021
1 13.4929 27.6189 15.3021
1 13.4729 28.4115 14.4901
1 12.6952 27.5669 14.5036
1 14.2866 28.4126 15.3021
1 15.0803 27.6189 15.3021
1 15.0722 28.3991 14.5282
1 14.2992 27.6069 14.4974
1 15.874 28.4126 15.3021
1 16.6677 27.6189 15.3021
1 16.6539 28.3984 14.5147
1 15.874 27.6227 14.5154
1 17.4614 28.4126 15.3021
1 18.2551 27.6189 15.3021
1 18.2486 28.3828 14.4978
1 17.4449 27.582 14.4928
1 19.0488 28.4126 15.3021
1 19.8425 27.6189 15.3021
1 19.8369 28.3997 14.464
1 19.0563 27.5906 14.4889
1 20.6362 28.4126 15.3021
1 21.4299 27.6189 15.3021
1 21.4236 28.3808 14.4996
1 20.6286 27.5802 14.4905
1 22.2236 28.4126 15.3021
1 23.0173 27.6189 15.3021
1 23.0297 28.3973 14.4991
1 22.2288 27.6115 14.4841
1 23.811 28.4126 15.3021
1 24.6047 27.6189 15.3021
1 24.6211 28.403 14.5233
1 23.8134 27.5963 14.5124
1 25.3984 28.4126 15.3021
1 26.1921 27.6189 15.3021
1 26.1742 28.3846 14.5089
1 25.3897 27.6047 14.5029
1 26.9858 28.4126 15.3021
1 27.7795 27.6189 15.3021
1 27.7677 28.4005 14.5035
1 26.9854 27.6258 14.5162
1 28.5732 28.4126 15.3021
1 29.3669 27.6189 15.3021
1 29.2957 28.4088 14.4637
1 28.5073 27.6315 14.4989
1 30 26.8252 15.3021
1 0.793701 26.0315 15.3021
1 0.835747 26.8381 14.5044
1 0.0523365 26.0435 14.4488
1 1.5874 26.8252 15.3021
1 2.3811 26.0315 15.3021
1 2.37038 26.8371 14.4989
1 1.60951 26.0433 14.4887
1 3.1748 26.8252 15.3021
1 3.9685 26.0315 15.3021
1 3.96483 26.8119 14.5033
1 3.15216 26.0526 14.4892
1 4.7622 26.8252 15.3021
1 5.5559 26.0315 15.3021
1 5.55379 26.8107 14.5046
1 4.76347 26.0192 14.4973
1 6.3496 26.8252 15.3021
1 7.1433 26.0315 15.3021
1 7.11335 26.8197 14.5179
1 6.34435 26.0353 14.5257
1 7.93701 26.8252 15.3021
1 8.73071 26.0315 15.3021
1 8.74056 26.8286 14.5221
1 7.91713 26.0421 14.5258
1 9.52441 26.8252 15.3021
1 10.3181 26.0315 15.3021
1 10.317 26.8157 14.5265
1 9.49981 26.0242 14.5202
1 11.1118 26.8252 15.3021
1 11.9055 26.0315 15.3021
1 11.8868 26.8085 14.5183
1 11.1206 26.0248 14.5149
1 12.6992 26.8252 15.3021
1 13.4929 26.0315 15.3021
1 13.4946 26.8064 14.5263
1 12.6777 25.9995 14.4958
1 14.2866 26.8252 15.3021
1 15.0803 26.0315 15.3021
1 15.0668 26.8235 14.4944
1 14.2674 26.0368 14.5109
1 15.874 26.8252 15.3021
1 16.6677 26.0315 15.3021
1 16.6684 26.8127 14.5081
1 15.889 26.0349 14.5286
1 17.4614 26.8252 15.3021
1 18.2551 26.0315 15.3021
1 18.2538 26.8128 14.5041
1 17.4633 26.0015 14.4946
1 19.0488 26.8252 15.3021
1 19.8425 26.0315 15.3021
1 19.8179 26.7959 14.505
1 19.0481 25.9889 14.5028
1 20.6362 26.8252 15.3021
1 21.4299 26.0315 15.3021
1 21.4334 26.8161 14.4947
1 20.6503 26.0207 14.5121
1 22.2236 26.8252 15.3021
1 23.0173 26.0315 15.3021
1 23.0128 26.8065 14.5006
1 22.2266 26.0231 14.5111
1 23.811 26.8252 15.3021
1 24.6047 26.0315 15.3021
1 24.5992 26.8372 14.4999
1 23.8317 26.0429 14.4692
1 25.3984 26.8252 15.3021
1 26.1921 26.0315 15.3021
1 26.1952 26.802 14.4944
1 25.3888 26.0414 14.5212
1 26.9858 26.8252 15.3021
1 27.7795 26.0315 15.3021
1 27.7727 26.7971 14.5062
1 26.9849 26.0192 14.5075
1 28.5732 26.8252 15.3021
1 29.3669 26.0315 15.3021
1 29.2921 26.8294 14.4749
1 28.542 26.0358 14.5154
1 30 25.2378 15.3021
1 0.793701 24.4441 15.3021
1 0.820262 25.2537 14.5107
1 0.0913808 24.4172 14.5054
1 1.5874 25.2378 15.3021
1 2.3811 24.4441 15.3021
1 2.36665 25.2231 14.4872
1 1.60857 24.4357 14.4781
1 3.1748 25.2378 15.3021
1 3.9685 24.4441 15.3021
1 3.96536 25.2631 14.5218
1 3.17265 24.4576 14.4921
1 4.7622 25.2378 15.3021
1 5.5559 24.4441 15.3021
1 5.56171 25.2357 14.5187
1 4.75599 24.4369 14.507
1 6.3496 25.2378 15.3021
1 7.1433 24.4441 15.3021
1 7.12898 25.2405 14.5057
1 6.35188 24.4605 14.503
1 7.93701 25.2378 15.3021
1 8.73071 24.4441 15.3021
1 8.68827 25.248 14.5242
1 7.93107 24.4506 14.5059
1 9.52441 25.2378 15.3021
1 10.3181 24.4441 15.3021
1 10.3243 25.2263 14.5191
1 9.49134 24.427 14.533
1 11.1118 25.2378 15.3021
1 11.9055 24.4441 15.3021
1 11.883 25.2304 14.5231
1 11.1228 24.4341 14.5044
1 12.6992 25.2378 15.3021
1 13.4929 24.4441 15.3021
1 13.4916 25.2346 14.5167
1 12.6888 24.4409 14.489
1 14.2866 25.2378 15.3021
1 15.0803 24.4441 15.3021
1 15.0495 25.2353 14.5308
1 14.2883 24.4292 14.4964
1 15.874 25.2378 15.3021
1 16.6677 24.4441 15.3021
1 16.661 25.2308 14.4952
1 15.8677 24.4446 14.5246
1 17.4614 25.2378 15.3021
1 18.2551 24.4441 15.3021
1 18.236 25.2081 14.4953
1 17.4589 24.4286 14.5036
1 19.0488 25.2378 15.3021
1 19.8425 24.4441 15.3021
1 19.8481 25.2363 14.4954
1 19.0721 24.4346 14.4941
1 20.6362 25.2378 15.3021
1 21.4299 24.4441 15.3021
1 21.4242 25.226 14.5129
1 20.6493 24.4261 14.5191
1 22.2236 25.2378 15.3021
1 23.0173 24.4441 15.3021
1 23.0307 25.2269 14.5139
1 22.2198 24.4391 14.5115
1 23.811 25.2378 15.3021
1 24.6047 24.4441 15.3021
1 24.5999 25.2326 14.5138
1 23.8193 24.4053 14.5116
1 25.3984 25.2378 15.3021
1 26.1921 24.4441 15.3021
1 26.1825 25.2598 14.5415
1 25.4095 24.4356 14.4974
1 26.9858 25.2378 15.3021
1 27.7795 24.4441 15.3021
1 27.7778 25.2201 14.5104
1 26.9602 24.4605 14.5343
1 28.5732 25.2378 15.3021
1 29.3669 24.4441 15.3021
1 29.2939 25.2189 14.4589
1 28.5401 24.423 14.4888
1 30 23.6504 15.3021
1 0.793701 22.8567 15.3021
1 0.848818 23.6399 14.5015
1 0.0659757 22.8268 14.4738
1 1.5874 23.6504 15.3021
1 2.3811 22.8567 15.3021
1 2.38845 23.6479 14.5113
1 1.60859 22.8726 14.5109
1 3.1748 23.6504 15.3021
1 3.9685 22.8567 15.3021
1 3.96262 23.6652 14.5012
1 3.18774 22.867 14.5355
1 4.7622 23.6504 15.3021
1 5.5559 22.8567 15.3021
1 5.57231 23.6641 14.4951
1 4.77351 22.8473 14.5079
1 6.3496 23.6504 15.3021
1 7.1433 22.8567 15.3021
1 7.16315 23.644 14.4862
1 6.34568 22.8426 14.5209
1 7.93701 23.6504 15.3021
1 8.73071 22.8567 15.3021
1 8.70312 23.6288 14.5054
1 7.94796 22.8418 14.5093
1 9.52441 23.6504 15.3021
1 10.3181 22.8567 15.3021
1 10.3124 23.6616 14.5011
1 9.52564 22.8297 14.5329
1 11.1118 23.6504 15.3021
1 11.9055 22.8567 15.3021
1 11.9042 23.6446 14.5142
1 11.1058 22.8808 14.5138
1 12.6992 23.6504 15.3021
1 13.4929 22.8567 15.3021
1 13.4958 23.6514 14.509
1 12.7263 22.8616 14.5002
1 14.2866 23.6504 15.3021
1 15.0803 22.8567 15.3021
1 15.0766 23.6535 14.5049
1 14.3169 22.8545 14.5166
1 15.874 23.6504 15.3021
1 16.6677 22.8567 15.3021
1 16.6522 23.6541 14.5005
1 15.8762 22.8467 14.5145
1 17.4614 23.6504 15.3021
1 18.2551 22.8567 15.3021
1 18.279 23.6455 14.5103
1 17.4545 22.8801 14.5203
1 19.0488 23.6504 15.3021
1 19.8425 22.8567 15.3021
1 19.8528 23.6436 14.515
1 19.0517 22.8665 14.4983
1 20.6362 23.6504 15.3021
1 21.4299 22.8567 15.3021
1 21.4256 23.6226 14.5225
1 20.6354 22.8397 14.5247
1 22.2236 23.6504 15.3021
1 23.0173 22.8567 15.3021
1 23.0022 23.6733 14.4947
1 22.2223 22.8639 14.5171
1 23.811 23.6504 15.3021
1 24.6047 22.8567 15.3021
1 24.6131 23.6214 14.5068
1 23.8072 22.8355 14.4913
1 25.3984 23.6504 15.3021
1 26.1921 22.8567 15.3021
1 26.1916 23.6611 14.503
1 25.4094 22.8228 14.5053
1 26.9858 23.6504 15.3021
1 27.7795 22.8567 15.3021
1 27.7455 23.6624 14.4988
1 26.9763 22.8423 14.5065
1 28.5732 23.6504 15.3021
1 29.3669 22.8567 15.3021
1 29.3108 23.6413 14.499
1 28.5085 22.8753 14.494
1 30 22.063 15.3021
1 0.793701 21.2693 15.3021
1 0.824115 22.052 14.4999
1 0.0574237 21.2798 14.484
1 1.5874 22.063 15.3021
1 2.3811 21.2693 15.3021
1 2.39815 22.0799 14.5137
1 1.61865 21.289 14.5042
1 3.1748 22.063 15.3021
1 3.9685 21.2693 15.3021
1 3.99675 22.0669 14.5282
1 3.14952 21.2911 14.5042
1 4.7622 22.063 15.3021
1 5.5559 21.2693 15.3021
1 5.54892 22.0488 14.5103
1 4.75935 21.2541 14.4936
1 6.3496 22.063 15.3021
1 7.1433 21.2693 15.3021
1 7.13332 22.0533 14.5114
1 6.34983 21.2482 14.5028
1 7.93701 22.063 15.3021
1 8.73071 21.2693 15.3021
1 8.70588 22.0563 14.5118
1 7.94355 21.2464 14.4937
1 9.52441 22.063 15.3021
1 10.3181 21.2693 15.3021
1 10.3187 22.0525 14.534
1 9.49057 21.256 14.5017
1 11.1118 22.063 15.3021
1 11.9055 21.2693 15.3021
1 11.884 22.05 14.5108
1 11.1151 21.2767 14.5204
1 12.6992 22.063 15.3021
1 13.4929 21.2693 15.3021
1 13.5072 22.0657 14.5064
1 12.7005 21.2544 14.5062
1 14.2866 22.063 15.3021
1 15.0803 21.2693 15.3021
1 15.0915 22.0429 14.5107
1 14.2846 21.2799 14.5335
1 15.874 22.063 15.3021
1 16.6677 21.2693 15.3021
1 16.6816 22.0565 14.5076
1 15.8765 21.2613 14.5251
1 17.4614 22.063 15.3021
1 18.2551 21.2693 15.3021
1 18.2358 22.0667 14.505
1 17.4324 21.2627 14.4996
1 19.0488 22.063 15.3021
1 19.8425 21.2693 15.3021
1 19.8582 22.0498 14.486
1 19.0272 21.2419 14.5389
1 20.6362 22.063 15.3021
1 21.4299 21.2693 15.3021
1 21.4058 22.0874 14.5043
1 20.6286 21.2514 14.517
1 22.2236 22.063 15.3021
1 23.0173 21.2693 15.3021
1 23.0372 22.0742 14.5167
1 22.2227 21.2598 14.5287
1 23.811 22.063 15.3021
1 24.6047 21.2693 15.3021
1 24.5887 22.0683 14.4922
1 23.8375 21.2755 14.4968
1 25.3984 22.063 15.3021
1 26.1921 21.2693 15.3021
1 26.1957 22.0504 14.495
1 25.4002 21.2964 14.4962
1 26.9858 22.063 15.3021
1 27.7795 21.2693 15.3021
1 27.7501 22.0621 14.4999
1 26.9857 21.2696 14.4916
1 28.5732 22.063 15.3021
1 29.3669 21.2693 15.3021
1 29.2963 22.0837 14.4983
1 28.5419 21.2706 14.4977
1 30 20.4756 15.3021
1 0.793701 19.6819 15.3021
1 0.822796 20.4879 14.5025
1 0.0530291 19.6846 14.4678
1 1.5874 20.4756 15.3021
1 2.3811 19.6819 15.3021
1 2.40782 20.4717 14.5028
1 1.59279 19.6826 14.5086
1 3.1748 20.4756 15.3021
1 3.9685 19.6819 15.3021
1 3.98603 20.4782 14.5261
1 3.17098 19.6692 14.519
1 4.7622 20.4756 15.3021
1 5.5559 19.6819 15.3021
1 5.57332 20.4729 14.5017
1 4.78826 19.6661 14.4921
1 6.3496 20.4756 15.3021
1 7.1433 19.6819 15.3021
1 7.15634 20.4832 14.4941
1 6.37204 19.6996 14.4746
1 7.93701 20.4756 15.3021
1 8.73071 19.6819 15.3021
1 8.72531 20.4927 14.5168
1 7.94709 19.6816 14.5159
1 9.52441 20.4756 15.3021
1 10.3181 19.6819 15.3021
1 10.3151 20.4934 14.5174
1 9.56266 19.6676 14.5289
1 11.1118 20.4756 15.3021
1 11.9055 19.6819 15.3021
1 11.9068 20.4797 14.5213
1 11.1092 19.6919 14.4946
1 12.6992 20.4756 15.3021
1 13.4929 19.6819 15.3021
1 13.4747 20.4901 14.5178
1 12.69 19.679 14.4906
1 14.2866 20.4756 15.3021
1 15.0803 19.6819 15.3021
1 15.0962 20.4869 14.5088
1 14.2961 19.7009 14.513
1 15.874 20.4756 15.3021
1 16.6677 19.6819 15.3021
1 16.6663 20.4689 14.4963
1 15.8935 19.6697 14.4886
1 17.4614 20.4756 15.3021
1 18.2551 19.6819 15.3021
1 18.2359 20.4477 14.5006
1 17.4578 19.6846 14.4947
1 19.0488 20.4756 15.3021
1 19.8425 19.6819 15.3021
1 19.822 20.4942 14.5025
1 19.0236 19.6761 14.5168
1 20.6362 20.4756 15.3021
1 21.4299 19.6819 15.3021
1 21.4097 20.4579 14.51
1 20.6329 19.7025 14.4939
1 22.2236 20.4756 15.3021
1 23.0173 19.6819 15.3021
1 23.0451 20.4788 14.5349
1 22.2031 19.663 14.5197
1 23.811 20.4756 15.3021
1 24.6047 19.6819 15.3021
1 24.6099 20.5306 14.5158
1 23.8131 19.7014 14.5107
1 25.3984 20.4756 15.3021
1 26.1921 19.6819 15.3021
1 26.1887 20.4863 14.508
1 25.367 19.7149 14.5285
1 26.9858 20.4756 15.3021
1 27.7795 19.6819 15.3021
1 27.7694 20.4746 14.5106
1 26.9862 19.6812 14.5063
1 28.5732 20.4756 15.3021
1 29.3669 19.6819 15.3021
1 29.3167 20.4789 14.4535
1 28.5239 19.7093 14.4965
1 30 18.8882 15.3021
1 0.793701 18.0945 15.3021
1 0.800924 18.8752 14.4939
1 0.0663515 18.077 14.4754
1 1.5874 18.8882 15.3021
1 2.3811 18.0945 15.3021
1 2.39567 18.8891 14.4718
1 1.58326 18.1295 14.4993
1 3.1748 18.8882 15.3021
1 3.9685 18.0945 15.3021
1 3.99426 18.8803 14.5325
1 3.18335 18.1183 14.5006
1 4.7622 18.8882 15.3021
1 5.5559 18.0945 15.3021
1 5.58141 18.8785 14.5059
1 4.76822 18.107 14.5309
1 6.3496 18.8882 15.3021
1 7.1433 18.0945 15.3021
1 7.12182 18.9119 14.4945
1 6.36161 18.0813 14.5098
1 7.93701 18.8882 15.3021
1 8.73071 18.0945 15.3021
1 8.72432 18.9061 14.5154
1 7.94657 18.0966 14.5172
1 9.52441 18.8882 15.3021
1 10.3181 18.0945 15.3021
1 10.327 18.878 14.4992
1 9.52635 18.0963 14.512
1 11.1118 18.8882 15.3021
1 11.9055 18.0945 15.3021
1 11.9294 18.8887 14.4894
1 11.1441 18.1003 14.5127
1 12.6992 18.8882 15.3021
1 13.4929 18.0945 15.3021
1 13.4888 18.8886 14.5162
1 12.7087 18.0859 14.4976
1 14.2866 18.8882 15.3021
1 15.0803 18.0945 15.3021
1 15.084 18.9113 14.5118
1 14.3253 18.0877 14.4929
1 15.874 18.8882 15.3021
1 16.6677 18.0945 15.3021
1 16.6673 18.9168 14.5049
1 15.8953 18.0977 14.5133
1 17.4614 18.8882 15.3021
1 18.2551 18.0945 15.3021
1 18.2331 18.8842 14.4875
1 17.4365 18.1157 14.5193
1 19.0488 18.8882 15.3021
1 19.8425 18.0945 15.3021
1 19.8536 18.9179 14.4956
1 19.0289 18.106 14.5015
1 20.6362 18.8882 15.3021
1 21.4299 18.0945 15.3021
1 21.4066 18.8772 14.5148
1 20.6145 18.0877 14.4852
1 22.2236 18.8882 15.3021
1 23.0173 18.0945 15.3021
1 23.0257 18.8819 14.5291
1 22.2422 18.0886 14.527
1 23.811 18.8882 15.3021
1 24.6047 18.0945 15.3021
1 24.5976 18.8798 14.5228
1 23.8165 18.0697 14.5319
1 25.3984 18.8882 15.3021
1 26.1921 18.0945 15.3021
1 26.1852 18.9249 14.4897
1 25.4096 18.0898 14.5107
1 26.9858 18.8882 15.3021
1 27.7795 18.0945 15.3021
1 27.7776 18.8818 14.5008
1 26.9866 18.1208 14.5172
1 28.5732 18.8882 15.3021
1 29.3669 18.0945 15.3021
1 29.2925 18.8745 14.4857
1 28.5424 18.0824 14.4995
1 30 17.3008 15.3021
1 0.793701 16.5071 15.3021
1 0.829003 17.3196 14.514
1 0.0668443 16.51 14.4686
1 1.5874 17.3008 15.3021
1 2.3811 16.5071 15.3021
1 2.38732 17.3126 14.5174
1 1.61132 16.4847 14.4941
1 3.1748 17.3008 15.3021
1 3.9685 16.5071 15.3021
1 3.97621 17.3198 14.5084
1 3.17494 16.4896 14.515
1 4.7622 17.3008 15.3021
1 5.5559 16.5071 15.3021
1 5.54536 17.3304 14.536
1 4.75147 16.508 14.5113
1 6.3496 17.3008 15.3021
1 7.1433 16.5071 15.3021
1 7.14362 17.3147 14.5052
1 6.33714 16.502 14.5351
1 7.93701 17.3008 15.3021
1 8.73071 16.5071 15.3021
1 8.70831 17.3142 14.5307
1 7.93028 16.4984 14.52
1 9.52441 17.3008 15.3021
1 10.3181 16.5071 15.3021
1 10.3155 17.3241 14.529
1 9.5164 16.529 14.5086
1 11.1118 17.3008 15.3021
1 11.9055 16.5071 15.3021
1 11.9158 17.3177 14.4979
1 11.1094 16.5381 14.5167
1 12.6992 17.3008 15.3021
1 13.4929 16.5071 15.3021
1 13.5035 17.2935 14.4962
1 12.7147 16.5222 14.4764
1 14.2866 17.3008 15.3021
1 15.0803 16.5071 15.3021
1 15.0767 17.3411 14.4991
1 14.2871 16.51 14.5373
1 15.874 17.3008 15.3021
1 16.6677 16.5071 15.3021
1 16.6703 17.2985 14.5149
1 15.8685 16.4875 14.5223
1 17.4614 17.3008 15.3021
1 18.2551 16.5071 15.3021
1 18.2334 17.3158 14.5035
1 17.4565 16.4842 14.5005
1 19.0488 17.3008 15.3021
1 19.8425 16.5071 15.3021
1 19.8362 17.2931 14.5
1 19.0515 16.4851 14.4834
1 20.6362 17.3008 15.3021
1 21.4299 16.5071 15.3021
1 21.4224 17.2979 14.528
1 20.6396 16.4985 14.4961
1 22.2236 17.3008 15.3021
1 23.0173 16.5071 15.3021
1 23.0269 17.2842 14.5084
1 22.2441 16.4911 14.5313
1 23.811 17.3008 15.3021
1 24.6047 16.5071 15.3021
1 24.5982 17.2966 14.499
1 23.79 16.4858 14.5044
1 25.3984 17.3008 15.3021
1 26.1921 16.5071 15.3021
1 26.2059 17.2913 14.5165
1 25.4133 16.496 14.5078
1 26.9858 17.3008 15.3021
1 27.7795 16.5071 15.3021
1 27.7625 17.2656 14.489
1 26.9634 16.5061 14.5211
1 28.5732 17.3008 15.3021
1 29.3669 16.5071 15.3021
1 29.3169 17.2792 14.4656
1 28.5213 16.5135 14.5157
1 30 15.7134 15.3021
1 0.793701 14.9197 15.3021
1 0.821139 15.7098 14.4729
1 0.0514822 14.913 14.4612
1 1.5874 15.7134 15.3021
1 2.3811 14.9197 15.3021
1 2.38183 15.7472 14.4985
1 1.60408 14.9313 14.5024
1 3.1748 15.7134 15.3021
1 3.9685 14.9197 15.3021
1 3.97089 15.705 14.518
1 3.17434 14.9448 14.5176
1 4.7622 15.7134 15.3021
1 5.5559 14.9197 15.3021
1 5.56942 15.732 14.5153
1 4.79199 14.9228 14.5309
1 6.3496 15.7134 15.3021
1 7.1433 14.9197 15.3021
1 7.14244 15.7149 14.4836
1 6.33619 14.9294 14.4932
1 7.93701 15.7134 15.3021
1 8.73071 14.9197 15.3021
1 8.72834 15.7212 14.4928
1 7.91033 14.8947 14.5194
1 9.52441 15.7134 15.3021
1 10.3181 14.9197 15.3021
1 10.33 15.7098 14.5094
1 9.51531 14.9237 14.5269
1 11.1118 15.7134 15.3021
1 11.9055 14.9197 15.3021
1 11.9084 15.7252 14.4944
1 11.0985 14.9243 14.5238
1 12.6992 15.7134 15.3021
1 13.4929 14.9197 15.3021
1 13.4793 15.7351 14.5234
1 12.714 14.943 14.5192
1 14.2866 15.7134 15.3021
1 15.0803 14.9197 15.3021
1 15.0761 15.6967 14.5381
1 14.2627 14.9011 14.5082
1 15.874 15.7134 15.3021
1 16.6677 14.9197 15.3021
1 16.6699 15.7058 14.5093
1 15.8821 14.9186 14.4974
1 17.4614 15.7134 15.3021
1 18.2551 14.9197 15.3021
1 18.2625 15.6955 14.4879
1 17.4511 14.9192 14.5115
1 19.0488 15.7134 15.3021
1 19.8425 14.9197 15.3021
1 19.8514 15.7008 14.4958
1 19.0299 14.9125 14.5125
1 20.6362 15.7134 15.3021
1 21.4299 14.9197 15.3021
1 21.4072 15.7046 14.498
1 20.6263 14.9157 14.5071
1 22.2236 15.7134 15.3021
1 23.0173 14.9197 15.3021
1 22.9913 15.7222 14.5309
1 22.1857 14.9467 14.5088
1 23.811 15.7134 15.3021
1 24.6047 14.9197 15.3021
1 24.5943 15.7071 14.5282
1 23.8057 14.9106 14.5129
1 25.3984 15.7134 15.3021
1 26.1921 14.9197 15.3021
1 26.1639 15.6979 14.5494
1 25.3829 14.9062 14.5288
1 26.9858 15.7134 15.3021
1 27.7795 14.9197 15.3021
1 27.7694 15.6902 14.507
1 26.9762 14.9169 14.5191
1 28.5732 15.7134 15.3021
1 29.3669 14.9197 15.3021
1 29.2912 15.7139 14.4439
1 28.5782 14.9061 14.5206
1 30 14.126 15.3021
1 0.793701 13.3323 15.3021
1 0.808507 14.1219 14.4804
1 0.042013 13.3475 14.4609
1 1.5874 14.126 15.3021
1 2.3811 13.3323 15.3021
1 2.37495 14.1091 14.483
1 1.60554 13.3379 14.4732
1 3.1748 14.126 15.3021
1 3.9685 13.3323 15.3021
1 3.97402 14.1232 14.482
1 3.19273 13.3377 14.5113
1 4.7622 14.126 15.3021
1 5.5559 13.3323 15.3021
1 5.55428 14.1066 14.5096
1 4.76324 13.3596 14.5307
1 6.3496 14.126 15.3021
1 7.1433 13.3323 15.3021
1 7.14029 14.1132 14.5126
1 6.35539 13.3315 14.5066
1 7.93701 14.126 15.3021
1 8.73071 13.3323 15.3021
1 8.74257 14.1408 14.5105
1 7.92058 13.3398 14.5041
1 9.52441 14.126 15.3021
1 10.3181 13.3323 15.3021
1 10.3265 14.13 14.5226
1 9.50611 13.3381 14.5026
1 11.1118 14.126 15.3021
1 11.9055 13.3323 15.3021
1 11.9228 14.1338 14.517
1 11.1404 13.34 14.4943
1 12.6992 14.126 15.3021
1 13.4929 13.3323 15.3021
1 13.4968 14.1389 14.5091
1 12.7219 13.352 14.4917
1 14.2866 14.126 15.3021
1 15.0803 13.3323 15.3021
1 15.0593 14.1097 14.5058
1 14.2581 13.317 14.5125
1 15.874 14.126 15.3021
1 16.6677 13.3323 15.3021
1 16.6596 14.1094 14.5251
1 15.8761 13.3257 14.5025
1 17.4614 14.126 15.3021
1 18.2551 13.3323 15.3021
1 18.2546 14.1496 14.5435
1 17.467 13.349 14.5103
1 19.0488 14.126 15.3021
1 19.8425 13.3323 15.3021
1 19.8494 14.1471 14.52
1 19.0248 13.3508 14.5103
1 20.6362 14.126 15.3021
1 21.4299 13.3323 15.3021
1 21.409 14.1254 14.5309
1 20.6349 13.3153 14.5139
1 22.2236 14.126 15.3021
1 23.0173 13.3323 15.3021
1 23.0077 14.1094 14.4949
1 22.229 13.3469 14.5341
1 23.811 14.126 15.3021
1 24.6047 13.3323 15.3021
1 24.5957 14.1125 14.5296
1 23.8082 13.3436 14.5084
1 25.3984 14.126 15.3021
1 26.1921 13.3323 15.3021
1 26.1971 14.1172 14.5299
1 25.3951 13.3274 14.5109
1 26.9858 14.126 15.3021
1 27.7795 13.3323 15.3021
1 27.771 14.1215 14.5002
1 26.9947 13.3207 14.5122
1 28.5732 14.126 15.3021
1 29.3669 13.3323 15.3021
1 29.2885 14.1277 14.4766
1 28.5272 13.3043 14.4752
1 30 12.5386 15.3021
1 0.793701 11.7449 15.3021
1 0.823586 12.5415 14.4989
1 0.0409115 11.7554 14.4796
1 1.5874 12.5386 15.3021
1 2.3811 11.7449 15.3021
1 2.38434 12.5373 14.5125
1 1.5945 11.7333 14.5292
1 3.1748 12.5386 15.3021
1 3.9685 11.7449 15.3021
1 3.9722 12.5482 14.5023
1 3.18975 11.7302 14.5105
1 4.7622 12.5386 15.3021
1 5.5559 11.7449 15.3021
1 5.5456 12.5317 14.4978
1 4.77476 11.7516 14.5101
1 6.3496 12.5386 15.3021
1 7.1433 11.7449 15.3021
1 7.12695 12.5379 14.5
1 6.36172 11.7364 14.5052
1 7.93701 12.5386 15.3021
1 8.73071 11.7449 15.3021
1 8.72224 12.5523 14.5168
1 7.93832 11.7536 14.5151
1 9.52441 12.5386 15.3021
1 10.3181 11.7449 15.3021
1 10.3073 12.5403 14.4981
1 9.48832 11.7536 14.4995
1 11.1118 12.5386 15.3021
1 11.9055 11.7449 15.3021
1 11.9331 12.5146 14.502
1 11.1133 11.7666 14.4904
1 12.6992 12.5386 15.3021
1 13.4929 11.7449 15.3021
1 13.4984 12.5251 14.5017
1 12.6653 11.7345 14.5138
1 14.2866 12.5386 15.3021
1 15.0803 11.7449 15.3021
1 15.0813 12.5722 14.5078
1 14.2873 11.737 14.4991
1 15.874 12.5386 15.3021
1 16.6677 11.7449 15.3021
1 16.671 12.5393 14.5112
1 15.8673 11.7254 14.5
1 17.4614 12.5386 15.3021
1 18.2551 11.7449 15.3021
1 18.2386 12.5378 14.5033
1 17.4503 11.7161 14.5092
1 19.0488 12.5386 15.3021
1 19.8425 11.7449 15.3021
1 19.8412 12.5596 14.49
1 19.0286 11.7679 14.5123
1 20.6362 12.5386 15.3021
1 21.4299 11.7449 15.3021
1 21.4158 12.5417 14.491
1 20.6323 11.7261 14.5298
1 22.2236 12.5386 15.3021
1 23.0173 11.7449 15.3021
1 23.0189 12.5499 14.5333
1 22.2249 11.7507 14.5262
1 23.811 12.5386 15.3021
1 24.6047 11.7449 15.3021
1 24.5745 12.5454 14.519
1 23.8318 11.7413 14.5039
1 25.3984 12.5386 15.3021
1 26.1921 11.7449 15.3021
1 26.1914 12.5325 14.533
1 25.3998 11.7284 14.5209
1 26.9858 12.5386 15.3021
1 27.7795 11.7449 15.3021
1 27.7541 12.5138 14.5049
1 26.9675 11.7419 14.5077
1 28.5732 12.5386 15.3021
1 29.3669 11.7449 15.3021
1 29.3075 12.5262 14.4728
1 28.5591 11.7496 14.4942
1 30 10.9512 15.3021
1 0.793701 10.1575 15.3021
1 0.797041 10.9251 14.5142
1 0.0664845 10.1312 14.4731
1 1.5874 10.9512 15.3021
1 2.3811 10.1575 15.3021
1 2.3892 10.9447 14.5091
1 1.59608 10.1531 14.5015
1 3.1748 10.9512 15.3021
1 3.9685 10.1575 15.3021
1 4.00764 10.9471 14.5272
1 3.16026 10.1554 14.5252
1 4.7622 10.9512 15.3021
1 5.5559 10.1575 15.3021
1 5.55393 10.9355 14.5184
1 4.75752 10.1627 14.5127
1 6.3496 10.9512 15.3021
1 7.1433 10.1575 15.3021
1 7.1854 10.936 14.5067
1 6.38465 10.1761 14.5104
1 7.93701 10.9512 15.3021
1 8.73071 10.1575 15.3021
1 8.73742 10.9572 14.5311
1 7.93592 10.1418 14.5424
1 9.52441 10.9512 15.3021
1 10.3181 10.1575 15.3021
1 10.3066 10.96 14.5246
1 9.54402 10.1471 14.4848
1 11.1118 10.9512 15.3021
1 11.9055 10.1575 15.3021
1 11.8951 10.957 14.4794
1 11.1207 10.138 14.502
1 12.6992 10.9512 15.3021
1 13.4929 10.1575 15.3021
1 13.49 10.9342 14.5249
1 12.7151 10.1678 14.5091
1 14.2866 10.9512 15.3021
1 15.0803 10.1575 15.3021
1 15.0777 10.9352 14.5274
1 14.2819 10.141 14.5243
1 15.874 10.9512 15.3021
1 16.6677 10.1575 15.3021
1 16.6899 10.9282 14.5315
1 15.8739 10.1478 14.4977
1 17.4614 10.9512 15.3021
1 18.2551 10.1575 15.3021
1 18.274 10.9278 14.5031
1 17.4871 10.1431 14.51
1 19.0488 10.9512 15.3021
1 19.8425 10.1575 15.3021
1 19.8382 10.9668 14.5165
1 19.0682 10.1495 14.5264
1 20.6362 10.9512 15.3021
1 21.4299 10.1575 15.3021
1 21.4364 10.955 14.5047
1 20.6307 10.1745 14.5327
1 22.2236 10.9512 15.3021
1 23.0173 10.1575 15.3021
1 23.0153 10.9381 14.5053
1 22.2399 10.1545 14.5233
1 23.811 10.9512 15.3021
1 24.6047 10.1575 15.3021
1 24.595 10.964 14.5059
1 23.7883 10.1527 14.5149
1 25.3984 10.9512 15.3021
1 26.1921 10.1575 15.3021
1 26.1749 10.9529 14.5039
1 25.3858 10.1651 14.5087
1 26.9858 10.9512 15.3021
1 27.7795 10.1575 15.3021
1 27.7533 10.9524 14.507
1 26.9645 10.1482 14.5097
1 28.5732 10.9512 15.3021
1 29.3669 10.1575 15.3021
1 29.2958 10.9616 14.4871
1 28.5291 10.1483 14.501
1 30 9.36379 15.3021
1 0.793701 8.57009 15.3021
1 0.807236 9.36565 14.5013
1 0.0577845 8.5945 14.4846
1 1.5874 9.36379 15.3021
1 2.3811 8.57009 15.3021
1 2.37347 9.36125 14.4866
1 1.58947 8.5829 14.512
1 3.1748 9.36379 15.3021
1 3.9685 8.57009 15.3021
1 3.95449 9.38953 14.531
1 3.1743 8.5911 14.5146
1 4.7622 9.36379 15.3021
1 5.5559 8.57009 15.3021
1 5.53602 9.36501 14.4999
1 4.76454 8.57398 14.502
1 6.3496 9.36379 15.3021
1 7.1433 8.57009 15.3021
1 7.15113 9.35216 14.494
1 6.34752 8.57701 14.4901
1 7.93701 9.36379 15.3021
1 8.73071 8.57009 15.3021
1 8.75351 9.35638 14.5234
1 7.92985 8.55762 14.518
1 9.52441 9.36379 15.3021
1 10.3181 8.57009 15.3021
1 10.3077 9.36739 14.5282
1 9.52387 8.57157 14.5194
1 11.1118 9.36379 15.3021
1 11.9055 8.57009 15.3021
1 11.9306 9.366 14.512
1 11.1115 8.57832 14.4908
1 12.6992 9.36379 15.3021
1 13.4929 8.57009 15.3021
1 13.4919 9.34556 14.5051
1 12.687 8.54968 14.5151
1 14.2866 9.36379 15.3021
1 15.0803 8.57009 15.3021
1 15.0727 9.33439 14.4981
1 14.2588 8.55695 14.5207
1 15.874 9.36379 15.3021
1 16.6677 8.57009 15.3021
1 16.6792 9.3654 14.5139
1 15.871 8.55155 14.5351
1 17.4614 9.36379 15.3021
1 18.2551 8.57009 15.3021
1 18.2586 9.36529 14.5
1 17.4929 8.5683 14.4869
1 19.0488 9.36379 15.3021
1 19.8425 8.57009 15.3021
1 19.8524 9.34587 14.5289
1 19.0516 8.58597 14.4856
1 20.6362 9.36379 15.3021
1 21.4299 8.57009 15.3021
1 21.4403 9.36126 14.5031
1 20.6517 8.57616 14.5074
1 22.2236 9.36379 15.3021
1 23.0173 8.57009 15.3021
1 23.0052 9.38603 14.4933
1 22.2254 8.58448 14.5109
1 23.811 9.36379 15.3021
1 24.6047 8.57009 15.3021
1 24.6059 9.37035 14.5105
1 23.7971 8.57138 14.5105
1 25.3984 9.36379 15.3021
1 26.1921 8.57009 15.3021
1 26.1877 9.36037 14.4955
1 25.3791 8.59681 14.5302
1 26.9858 9.36379 15.3021
1 27.7795 8.57009 15.3021
1 27.771 9.38447 14.5027
1 26.991 8.58054 14.4957
1 28.5732 9.36379 15.3021
1 29.3669 8.57009 15.3021
1 29.2609 9.36345 14.4855
1 28.5171 8.55286 14.5088
1 30 7.77639 15.3021
1 0.793701 6.98268 15.3021
1 0.814412 7.7788 14.5067
1 0.0572239 6.97268 14.501
1 1.5874 7.77639 15.3021
1 2.3811 6.98268 15.3021
1 2.39848 7.80643 14.5283
1 1.60482 6.97482 14.5068
1 3.1748 7.77639 15.3021
1 3.9685 6.98268 15.3021
1 3.97152 7.79522 14.5094
1 3.18236 6.97177 14.4956
1 4.7622 7.77639 15.3021
1 5.5559 6.98268 15.3021
1 5.55071 7.75173 14.5042
1 4.74408 6.9901 14.4891
1 6.3496 7.77639 15.3021
1 7.1433 6.98268 15.3021
1 7.12091 7.77397 14.5119
1 6.35129 6.98107 14.5141
1 7.93701 7.77639 15.3021
1 8.73071 6.98268 15.3021
1 8.73188 7.77802 14.502
1 7.94945 6.97439 14.4875
1 9.52441 7.77639 15.3021
1 10.3181 6.98268 15.3021
1 10.3213 7.79089 14.5204
1 9.48953 6.98791 14.5291
1 11.1118 7.77639 15.3021
1 11.9055 6.98268 15.3021
1 11.9074 7.7886 14.5054
1 11.0924 7.00008 14.5143
1 12.6992 7.77639 15.3021
1 13.4929 6.98268 15.3021
1 13.4996 7.78047 14.4924
1 12.6902 7.00651 14.4918
1 14.2866 7.77639 15.3021
1 15.0803 6.98268 15.3021
1 15.0464 7.77335 14.5297
1 14.2617 6.97247 14.5158
1 15.874 7.77639 15.3021
1 16.6677 6.98268 15.3021
1 16.6677 7.77253 14.5001
1 15.8644 6.97042 14.4758
1 17.4614 7.77639 15.3021
1 18.2551 6.98268 15.3021
1 18.283 7.78439 14.5095
1 17.4563 7.01674 14.5112
1 19.0488 7.77639 15.3021
1 19.8425 6.98268 15.3021
1 19.8558 7.77622 14.5043
1 19.0402 7.00997 14.498
1 20.6362 7.77639 15.3021
1 21.4299 6.98268 15.3021
1 21.4504 7.78723 14.5014
1 20.6537 7.02587 14.529
1 22.2236 7.77639 15.3021
1 23.0173 6.98268 15.3021
1 22.9976 7.78286 14.5083
1 22.1992 6.98679 14.5119
1 23.811 7.77639 15.3021
1 24.6047 6.98268 15.3021
1 24.5792 7.76561 14.5046
1 23.7942 6.94801 14.5009
1 25.3984 7.77639 15.3021
1 26.1921 6.98268 15.3021
1 26.1952 7.78241 14.4854
1 25.3959 6.98052 14.5056
1 26.9858 7.77639 15.3021
1 27.7795 6.98268 15.3021
1 27.7589 7.78377 14.538
1 26.995 6.97856 14.504
1 28.5732 7.77639 15.3021
1 29.3669 6.98268 15.3021
1 29.2977 7.77812 14.4904
1 28.5395 6.97747 14.5069
1 30 6.18898 15.3021
1 0.793701 5.39528 15.3021
1 0.856987 6.15846 14.4869
1 0.0422388 5.38482 14.4611
1 1.5874 6.18898 15.3021
1 2.3811 5.39528 15.3021
1 2.40441 6.17868 14.5023
1 1.58999 5.3848 14.5235
1 3.1748 6.18898 15.3021
1 3.9685 5.39528 15.3021
1 3.98348 6.19673 14.4938
1 3.19422 5.38668 14.5102
1 4.7622 6.18898 15.3021
1 5.5559 5.39528 15.3021
1 5.54969 6.2097 14.5321
1 4.7882 5.36889 14.5322
1 6.3496 6.18898 15.3021
1 7.1433 5.39528 15.3021
1 7.1557 6.16343 14.4887
1 6.32524 5.39566 14.5205
1 7.93701 6.18898 15.3021
1 8.73071 5.39528 15.3021
1 8.72763 6.1956 14.506
1 7.96382 5.40548 14.5178
1 9.52441 6.18898 15.3021