9376
Atoms. Timestep: 4000000
1 15 3.55271e-15 10.6497
1 15.7937 29.2063 10.6497
1 15.8418 29.9176 9.80641
1 15.0617 29.179 9.81507
1 16.5874 3.55271e-15 10.6497
1 17.3811 29.2063 10.6497
1 17.3785 29.9358 9.80173
1 16.6221 29.1555 9.81989
1 18.1748 3.55271e-15 10.6497
1 18.9685 29.2063 10.6497
1 18.9647 29.9248 9.84979
1 18.1777 29.1801 9.84167
1 19.7622 3.55271e-15 10.6497
1 20.5559 29.2063 10.6497
1 20.5603 29.9442 9.81674
1 19.7707 29.1709 9.82837
1 21.3496 3.55271e-15 10.6497
1 22.1433 29.2063 10.6497
1 22.1323 29.9224 9.82331
1 21.3445 29.181 9.83065
1 22.937 3.55271e-15 10.6497
1 23.7307 29.2063 10.6497
1 23.7237 29.9021 9.83967
1 22.9195 29.1785 9.8315
1 24.5244 3.55271e-15 10.6497
1 25.3181 29.2063 10.6497
1 25.3374 29.9461 9.80446
1 24.5483 29.1648 9.87497
1 26.1118 3.55271e-15 10.6497
1 26.9055 29.2063 10.6497
1 26.8985 29.9049 9.80707
1 26.128 29.158 9.84786
1 27.6992 3.55271e-15 10.6497
1 28.4929 29.2063 10.6497
1 28.4872 29.9464 9.8277
1 27.6882 29.1898 9.85289
1 29.2866 3.55271e-15 10.6497
1 0.08031 29.2063 10.6497
1 0.0819232 29.9322 9.81963
1 29.3038 29.1925 9.8255
1 0.874011 3.55271e-15 10.6497
1 1.66771 29.2063 10.6497
1 1.67531 29.9219 9.82433
1 0.896162 29.1793 9.86444
1 2.46141 3.55271e-15 10.6497
1 3.25511 29.2063 10.6497
1 3.24694 29.8981 9.80004
1 2.43908 29.1686 9.8897
1 4.04881 3.55271e-15 10.6497
1 4.84251 29.2063 10.6497
1 4.82605 29.9387 9.83465
1 4.05882 29.2048 9.84167
1 5.63621 3.55271e-15 10.6497
1 6.42991 29.2063 10.6497
1 6.42536 29.918 9.84147
1 5.63684 29.1827 9.85252
1 7.22361 3.55271e-15 10.6497
1 8.01732 29.2063 10.6497
1 8.01658 29.9237 9.82769
1 7.23158 29.1714 9.85283
1 8.81102 3.55271e-15 10.6497
1 9.60472 29.2063 10.6497
1 9.58423 29.9369 9.80207
1 8.79808 29.1528 9.85633
1 10.3984 3.55271e-15 10.6497
1 11.1921 29.2063 10.6497
1 11.1902 29.9426 9.78883
1 10.3664 29.1865 9.86678
1 11.9858 3.55271e-15 10.6497
1 12.7795 29.2063 10.6497
1 12.7386 29.9398 9.82097
1 11.9902 29.1913 9.8339
1 13.5732 3.55271e-15 10.6497
1 14.3669 29.2063 10.6497
1 14.2988 29.9486 9.79071
1 13.5432 29.185 9.82086
1 15 28.4126 10.6497
1 15.7937 27.6189 10.6497
1 15.8172 28.413 9.8532
1 15.068 27.6288 9.83716
1 16.5874 28.4126 10.6497
1 17.3811 27.6189 10.6497
1 17.3984 28.3823 9.84043
1 16.6177 27.5968 9.85055
1 18.1748 28.4126 10.6497
1 18.9685 27.6189 10.6497
1 18.9824 28.4091 9.84478
1 18.1934 27.6029 9.84513
1 19.7622 28.4126 10.6497
1 20.5559 27.6189 10.6497
1 20.5592 28.3953 9.82871
1 19.747 27.5798 9.86075
1 21.3496 28.4126 10.6497
1 22.1433 27.6189 10.6497
1 22.1357 28.3588 9.84887
1 21.3339 27.5979 9.86443
1 22.937 28.4126 10.6497
1 23.7307 27.6189 10.6497
1 23.747 28.4105 9.84501
1 22.9382 27.6147 9.85881
1 24.5244 28.4126 10.6497
1 25.3181 27.6189 10.6497
1 25.3166 28.4025 9.88483
1 24.5481 27.6189 9.87813
1 26.1118 28.4126 10.6497
1 26.9055 27.6189 10.6497
1 26.9127 28.406 9.86471
1 26.098 27.6398 9.86312
1 27.6992 28.4126 10.6497
1 28.4929 27.6189 10.6497
1 28.4992 28.4015 9.83377
1 27.6875 27.6189 9.82819
1 29.2866 28.4126 10.6497
1 0.08031 27.6189 10.6497
1 0.0943872 28.4037 9.85677
1 29.2847 27.5939 9.85627
1 0.874011 28.4126 10.6497
1 1.66771 27.6189 10.6497
1 1.68521 28.3737 9.87946
1 0.864881 27.6188 9.84746
1 2.46141 28.4126 10.6497
1 3.25511 27.6189 10.6497
1 3.25196 28.3881 9.85443
1 2.48381 27.6192 9.85662
1 4.04881 28.4126 10.6497
1 4.84251 27.6189 10.6497
1 4.84632 28.3825 9.84485
1 4.04911 27.5972 9.86497
1 5.63621 28.4126 10.6497
1 6.42991 27.6189 10.6497
1 6.42923 28.3903 9.88953
1 5.63891 27.5991 9.89926
1 7.22361 28.4126 10.6497
1 8.01732 27.6189 10.6497
1 8.03407 28.3996 9.85554
1 7.22017 27.6268 9.87233
1 8.81102 28.4126 10.6497
1 9.60472 27.6189 10.6497
1 9.60552 28.3873 9.8514
1 8.81033 27.6099 9.83725
1 10.3984 28.4126 10.6497
1 11.1921 27.6189 10.6497
1 11.1897 28.4066 9.83665
1 10.4264 27.6216 9.86507
1 11.9858 28.4126 10.6497
1 12.7795 27.6189 10.6497
1 12.7612 28.4027 9.85383
1 11.9655 27.5779 9.86961
1 13.5732 28.4126 10.6497
1 14.3669 27.6189 10.6497
1 14.3146 28.3967 9.80573
1 13.5338 27.611 9.85256
1 15 26.8252 10.6497
1 15.7937 26.0315 10.6497
1 15.8342 26.8189 9.85751
1 15.0597 26.0143 9.81971
1 16.5874 26.8252 10.6497
1 17.3811 26.0315 10.6497
1 17.4176 26.8076 9.87027
1 16.6267 26.0252 9.85972
1 18.1748 26.8252 10.6497
1 18.9685 26.0315 10.6497
1 18.98 26.8261 9.86557
1 18.1765 25.9822 9.84507
1 19.7622 26.8252 10.6497
1 20.5559 26.0315 10.6497
1 20.559 26.8036 9.85605
1 19.7529 26.0404 9.87185
1 21.3496 26.8252 10.6497
1 22.1433 26.0315 10.6497
1 22.131 26.8121 9.885
1 21.3512 26.0212 9.86164
1 22.937 26.8252 10.6497
1 23.7307 26.0315 10.6497
1 23.7429 26.8129 9.8773
1 22.9623 26.0276 9.86277
1 24.5244 26.8252 10.6497
1 25.3181 26.0315 10.6497
1 25.2991 26.8013 9.86949
1 24.5435 26.0257 9.89956
1 26.1118 26.8252 10.6497
1 26.9055 26.0315 10.6497
1 26.8987 26.7989 9.85967
1 26.1169 26.0294 9.86895
1 27.6992 26.8252 10.6497
1 28.4929 26.0315 10.6497
1 28.4869 26.8133 9.85826
1 27.6931 26.0258 9.85367
1 29.2866 26.8252 10.6497
1 0.08031 26.0315 10.6497
1 0.064411 26.8424 9.84164
1 29.2609 26.0351 9.87519
1 0.874011 26.8252 10.6497
1 1.66771 26.0315 10.6497
1 1.63845 26.8545 9.85937
1 0.852678 26.0355 9.85977
1 2.46141 26.8252 10.6497
1 3.25511 26.0315 10.6497
1 3.2551 26.8231 9.8785
1 2.44799 26.051 9.86154
1 4.04881 26.8252 10.6497
1 4.84251 26.0315 10.6497
1 4.85613 26.8216 9.85482
1 4.04338 26.0107 9.85798
1 5.63621 26.8252 10.6497
1 6.42991 26.0315 10.6497
1 6.45438 26.8479 9.84234
1 5.64511 26.0313 9.83359
1 7.22361 26.8252 10.6497
1 8.01732 26.0315 10.6497
1 8.01719 26.8367 9.86236
1 7.19986 26.0479 9.8655
1 8.81102 26.8252 10.6497
1 9.60472 26.0315 10.6497
1 9.64163 26.8229 9.85459
1 8.81367 26.0501 9.86872
1 10.3984 26.8252 10.6497
1 11.1921 26.0315 10.6497
1 11.1708 26.8028 9.8329
1 10.4056 26.005 9.85724
1 11.9858 26.8252 10.6497
1 12.7795 26.0315 10.6497
1 12.7507 26.8247 9.86489
1 11.9651 26.0044 9.8556
1 13.5732 26.8252 10.6497
1 14.3669 26.0315 10.6497
1 14.2988 26.8283 9.83711
1 13.5529 26.0373 9.86876
1 15 25.2378 10.6497
1 15.7937 24.4441 10.6497
1 15.8237 25.2484 9.88307
1 15.0512 24.4488 9.80882
1 16.5874 25.2378 10.6497
1 17.3811 24.4441 10.6497
1 17.3699 25.2464 9.85087
1 16.6079 24.4417 9.86684
1 18.1748 25.2378 10.6497
1 18.9685 24.4441 10.6497
1 18.9759 25.2248 9.83762
1 18.158 24.4435 9.84316
1 19.7622 25.2378 10.6497
1 20.5559 24.4441 10.6497
1 20.514 25.2476 9.85239
1 19.7525 24.4307 9.85144
1 21.3496 25.2378 10.6497
1 22.1433 24.4441 10.6497
1 22.1518 25.219 9.83923
1 21.3226 24.4421 9.86081
1 22.937 25.2378 10.6497
1 23.7307 24.4441 10.6497
1 23.733 25.2359 9.84783
1 22.9516 24.4218 9.85884
1 24.5244 25.2378 10.6497
1 25.3181 24.4441 10.6497
1 25.3351 25.2592 9.83051
1 24.5391 24.4602 9.84549
1 26.1118 25.2378 10.6497
1 26.9055 24.4441 10.6497
1 26.8841 25.2275 9.85705
1 26.1144 24.4613 9.82717
1 27.6992 25.2378 10.6497
1 28.4929 24.4441 10.6497
1 28.4934 25.2268 9.86082
1 27.6928 24.4305 9.85608
1 29.2866 25.2378 10.6497
1 0.08031 24.4441 10.6497
1 0.0608432 25.2518 9.85589
1 29.2938 24.4364 9.84093
1 0.874011 25.2378 10.6497
1 1.66771 24.4441 10.6497
1 1.67654 25.2359 9.8531
1 0.886674 24.403 9.8625
1 2.46141 25.2378 10.6497
1 3.25511 24.4441 10.6497
1 3.25232 25.2477 9.85339
1 2.46026 24.4429 9.84392
1 4.04881 25.2378 10.6497
1 4.84251 24.4441 10.6497
1 4.83699 25.2418 9.84948
1 4.05454 24.4309 9.88566
1 5.63621 25.2378 10.6497
1 6.42991 24.4441 10.6497
1 6.4263 25.2407 9.88218
1 5.64387 24.4503 9.88063
1 7.22361 25.2378 10.6497
1 8.01732 24.4441 10.6497
1 8.03984 25.2618 9.84518
1 7.24639 24.4509 9.86078
1 8.81102 25.2378 10.6497
1 9.60472 24.4441 10.6497
1 9.6214 25.2343 9.8425
1 8.81102 24.4395 9.8749
1 10.3984 25.2378 10.6497
1 11.1921 24.4441 10.6497
1 11.1924 25.2071 9.86247
1 10.4014 24.4272 9.86454
1 11.9858 25.2378 10.6497
1 12.7795 24.4441 10.6497
1 12.774 25.2297 9.85669
1 12.0001 24.4325 9.85602
1 13.5732 25.2378 10.6497
1 14.3669 24.4441 10.6497
1 14.2946 25.2276 9.82023
1 13.5393 24.4086 9.83865
1 15 23.6504 10.6497
1 15.7937 22.8567 10.6497
1 15.8204 23.6535 9.8337
1 15.0461 22.8569 9.8123
1 16.5874 23.6504 10.6497
1 17.3811 22.8567 10.6497
1 17.3702 23.6436 9.85533
1 16.5878 22.8436 9.86048
1 18.1748 23.6504 10.6497
1 18.9685 22.8567 10.6497
1 18.9582 23.6416 9.83233
1 18.1783 22.8588 9.83652
1 19.7622 23.6504 10.6497
1 20.5559 22.8567 10.6497
1 20.5536 23.6379 9.84867
1 19.7572 22.8319 9.87952
1 21.3496 23.6504 10.6497
1 22.1433 22.8567 10.6497
1 22.1691 23.6336 9.84914
1 21.3332 22.8481 9.83897
1 22.937 23.6504 10.6497
1 23.7307 22.8567 10.6497
1 23.732 23.6549 9.8687
1 22.9523 22.8585 9.85038
1 24.5244 23.6504 10.6497
1 25.3181 22.8567 10.6497
1 25.3203 23.6624 9.82965
1 24.5395 22.8587 9.88659
1 26.1118 23.6504 10.6497
1 26.9055 22.8567 10.6497
1 26.9041 23.6644 9.83398
1 26.1063 22.8515 9.86884
1 27.6992 23.6504 10.6497
1 28.4929 22.8567 10.6497
1 28.4835 23.6401 9.86953
1 27.7227 22.8495 9.88506
1 29.2866 23.6504 10.6497
1 0.08031 22.8567 10.6497
1 0.0876467 23.6389 9.86949
1 29.3106 22.8351 9.88885
1 0.874011 23.6504 10.6497
1 1.66771 22.8567 10.6497
1 1.67604 23.6416 9.85282
1 0.871028 22.8799 9.8603
1 2.46141 23.6504 10.6497
1 3.25511 22.8567 10.6497
1 3.23601 23.6417 9.84688
1 2.44783 22.8577 9.87125
1 4.04881 23.6504 10.6497
1 4.84251 22.8567 10.6497
1 4.83318 23.6718 9.87086
1 4.07871 22.8537 9.83798
1 5.63621 23.6504 10.6497
1 6.42991 22.8567 10.6497
1 6.42268 23.6511 9.87435
1 5.66024 22.8623 9.85341
1 7.22361 23.6504 10.6497
1 8.01732 22.8567 10.6497
1 8.01124 23.6462 9.85185
1 7.23563 22.8564 9.84639
1 8.81102 23.6504 10.6497
1 9.60472 22.8567 10.6497
1 9.60739 23.6483 9.86856
1 8.80375 22.8786 9.84699
1 10.3984 23.6504 10.6497
1 11.1921 22.8567 10.6497
1 11.2085 23.6536 9.8665
1 10.3976 22.8578 9.85963
1 11.9858 23.6504 10.6497
1 12.7795 22.8567 10.6497
1 12.762 23.6459 9.82794
1 11.9773 22.8551 9.856
1 13.5732 23.6504 10.6497
1 14.3669 22.8567 10.6497
1 14.298 23.6597 9.84524
1 13.5722 22.8581 9.82821
1 15 22.063 10.6497
1 15.7937 21.2693 10.6497
1 15.8373 22.0548 9.84011
1 15.0797 21.2665 9.81626
1 16.5874 22.063 10.6497
1 17.3811 21.2693 10.6497
1 17.3753 22.0704 9.85732
1 16.6198 21.2816 9.83818
1 18.1748 22.063 10.6497
1 18.9685 21.2693 10.6497
1 18.9636 22.0411 9.85317
1 18.1543 21.244 9.8614
1 19.7622 22.063 10.6497
1 20.5559 21.2693 10.6497
1 20.5772 22.0704 9.85024
1 19.7666 21.2701 9.88958
1 21.3496 22.063 10.6497
1 22.1433 21.2693 10.6497
1 22.1515 22.0799 9.85647
1 21.3819 21.251 9.84049
1 22.937 22.063 10.6497
1 23.7307 21.2693 10.6497
1 23.7468 22.0503 9.86926
1 22.9449 21.2847 9.85591
1 24.5244 22.063 10.6497
1 25.3181 21.2693 10.6497
1 25.3336 22.0419 9.86464
1 24.5226 21.2905 9.85733
1 26.1118 22.063 10.6497
1 26.9055 21.2693 10.6497
1 26.9015 22.0708 9.84836
1 26.1033 21.2446 9.85949
1 27.6992 22.063 10.6497
1 28.4929 21.2693 10.6497
1 28.502 22.0611 9.85656
1 27.7128 21.2583 9.88221
1 29.2866 22.063 10.6497
1 0.08031 21.2693 10.6497
1 0.0915114 22.0344 9.84334
1 29.2698 21.2762 9.85085
1 0.874011 22.063 10.6497
1 1.66771 21.2693 10.6497
1 1.64999 22.0744 9.90266
1 0.882509 21.2665 9.86328
1 2.46141 22.063 10.6497
1 3.25511 21.2693 10.6497
1 3.24093 22.0728 9.88525
1 2.45227 21.2708 9.85521
1 4.04881 22.063 10.6497
1 4.84251 21.2693 10.6497
1 4.87915 22.0757 9.8525
1 4.06731 21.2657 9.85275
1 5.63621 22.063 10.6497
1 6.42991 21.2693 10.6497
1 6.42355 22.0609 9.85271
1 5.6256 21.2642 9.87584
1 7.22361 22.063 10.6497
1 8.01732 21.2693 10.6497
1 8.03987 22.0675 9.87568
1 7.22457 21.2569 9.85272
1 8.81102 22.063 10.6497
1 9.60472 21.2693 10.6497
1 9.58942 22.0428 9.85419
1 8.83112 21.2545 9.85891
1 10.3984 22.063 10.6497
1 11.1921 21.2693 10.6497
1 11.1724 22.0718 9.85791
1 10.412 21.2495 9.85741
1 11.9858 22.063 10.6497
1 12.7795 21.2693 10.6497
1 12.7734 22.08 9.86113
1 11.9684 21.2557 9.86723
1 13.5732 22.063 10.6497
1 14.3669 21.2693 10.6497
1 14.3151 22.0481 9.79653
1 13.538 21.2802 9.85263
1 15 20.4756 10.6497
1 15.7937 19.6819 10.6497
1 15.8333 20.4779 9.83083
1 15.048 19.6807 9.837
1 16.5874 20.4756 10.6497
1 17.3811 19.6819 10.6497
1 17.3829 20.4569 9.8751
1 16.6051 19.6604 9.85821
1 18.1748 20.4756 10.6497
1 18.9685 19.6819 10.6497
1 18.9854 20.4781 9.84873
1 18.1855 19.6884 9.84222
1 19.7622 20.4756 10.6497
1 20.5559 19.6819 10.6497
1 20.5534 20.4818 9.87367
1 19.7708 19.6799 9.87097
1 21.3496 20.4756 10.6497
1 22.1433 19.6819 10.6497
1 22.1541 20.4661 9.83985
1 21.3494 19.7079 9.84476
1 22.937 20.4756 10.6497
1 23.7307 19.6819 10.6497
1 23.7324 20.4784 9.86928
1 22.941 19.6991 9.85424
1 24.5244 20.4756 10.6497
1 25.3181 19.6819 10.6497
1 25.3139 20.4764 9.8696
1 24.514 19.6902 9.85449
1 26.1118 20.4756 10.6497
1 26.9055 19.6819 10.6497
1 26.9046 20.4681 9.8471
1 26.0992 19.6644 9.87665
1 27.6992 20.4756 10.6497
1 28.4929 19.6819 10.6497
1 28.4894 20.4815 9.84949
1 27.7061 19.6889 9.86039
1 29.2866 20.4756 10.6497
1 0.08031 19.6819 10.6497
1 0.0778739 20.4962 9.87304
1 29.2805 19.6803 9.8514
1 0.874011 20.4756 10.6497
1 1.66771 19.6819 10.6497
1 1.65583 20.4355 9.86221
1 0.870167 19.6858 9.85891
1 2.46141 20.4756 10.6497
1 3.25511 19.6819 10.6497
1 3.25292 20.4543 9.87119
1 2.45781 19.6561 9.86561
1 4.04881 20.4756 10.6497
1 4.84251 19.6819 10.6497
1 4.85372 20.4646 9.86603
1 4.07169 19.6677 9.87857
1 5.63621 20.4756 10.6497
1 6.42991 19.6819 10.6497
1 6.4329 20.4666 9.87378
1 5.66053 19.6872 9.86069
1 7.22361 20.4756 10.6497
1 8.01732 19.6819 10.6497
1 8.03482 20.4675 9.85849
1 7.2282 19.6932 9.85309
1 8.81102 20.4756 10.6497
1 9.60472 19.6819 10.6497
1 9.60947 20.4673 9.85477
1 8.80279 19.6787 9.87766
1 10.3984 20.4756 10.6497
1 11.1921 19.6819 10.6497
1 11.1877 20.4703 9.86961
1 10.4083 19.6708 9.8607
1 11.9858 20.4756 10.6497
1 12.7795 19.6819 10.6497
1 12.7604 20.4705 9.86319
1 11.9662 19.6962 9.84351
1 13.5732 20.4756 10.6497
1 14.3669 19.6819 10.6497
1 14.3243 20.5006 9.80796
1 13.5286 19.7011 9.85417
1 15 18.8882 10.6497
1 15.7937 18.0945 10.6497
1 15.8126 18.8802 9.85214
1 15.046 18.0831 9.80588
1 16.5874 18.8882 10.6497
1 17.3811 18.0945 10.6497
1 17.3799 18.881 9.84822
1 16.5892 18.0987 9.82356
1 18.1748 18.8882 10.6497
1 18.9685 18.0945 10.6497
1 18.9611 18.8941 9.86833
1 18.1603 18.1068 9.85656
1 19.7622 18.8882 10.6497
1 20.5559 18.0945 10.6497
1 20.5545 18.8904 9.87591
1 19.7814 18.0871 9.86107
1 21.3496 18.8882 10.6497
1 22.1433 18.0945 10.6497
1 22.1158 18.8762 9.84807
1 21.3093 18.0922 9.85928
1 22.937 18.8882 10.6497
1 23.7307 18.0945 10.6497
1 23.7373 18.8907 9.8441
1 22.9157 18.0845 9.85496
1 24.5244 18.8882 10.6497
1 25.3181 18.0945 10.6497
1 25.3063 18.9063 9.86504
1 24.5027 18.0834 9.86064
1 26.1118 18.8882 10.6497
1 26.9055 18.0945 10.6497
1 26.8854 18.8778 9.84212
1 26.1015 18.0933 9.86068
1 27.6992 18.8882 10.6497
1 28.4929 18.0945 10.6497
1 28.5069 18.8903 9.85399
1 27.7088 18.1182 9.8562
1 29.2866 18.8882 10.6497
1 0.08031 18.0945 10.6497
1 0.0908206 18.8775 9.84564
1 29.2623 18.0863 9.86018
1 0.874011 18.8882 10.6497
1 1.66771 18.0945 10.6497
1 1.61407 18.8815 9.83632
1 0.853891 18.0982 9.83606
1 2.46141 18.8882 10.6497
1 3.25511 18.0945 10.6497
1 3.262 18.8962 9.86421
1 2.45092 18.125 9.8822
1 4.04881 18.8882 10.6497
1 4.84251 18.0945 10.6497
1 4.85657 18.8718 9.8777
1 4.04907 18.1003 9.85444
1 5.63621 18.8882 10.6497
1 6.42991 18.0945 10.6497
1 6.42303 18.9104 9.86396
1 5.64036 18.105 9.86373
1 7.22361 18.8882 10.6497
1 8.01732 18.0945 10.6497
1 8.01448 18.8931 9.85818
1 7.23253 18.1223 9.85652
1 8.81102 18.8882 10.6497
1 9.60472 18.0945 10.6497
1 9.56764 18.8964 9.868
1 8.80204 18.0743 9.84797
1 10.3984 18.8882 10.6497
1 11.1921 18.0945 10.6497
1 11.1915 18.8736 9.86629
1 10.4129 18.1095 9.86076
1 11.9858 18.8882 10.6497
1 12.7795 18.0945 10.6497
1 12.7601 18.877 9.84544
1 11.9642 18.0937 9.8402
1 13.5732 18.8882 10.6497
1 14.3669 18.0945 10.6497
1 14.3131 18.892 9.79422
1 13.5157 18.1008 9.85557
1 15 17.3008 10.6497
1 15.7937 16.5071 10.6497
1 15.8055 17.3022 9.84294
1 15.0651 16.4928 9.80359
1 16.5874 17.3008 10.6497
1 17.3811 16.5071 10.6497
1 17.3793 17.2839 9.8638
1 16.5843 16.5062 9.85518
1 18.1748 17.3008 10.6497
1 18.9685 16.5071 10.6497
1 18.9528 17.2959 9.84647
1 18.1688 16.4885 9.84953
1 19.7622 17.3008 10.6497
1 20.5559 16.5071 10.6497
1 20.536 17.3033 9.85606
1 19.7533 16.5106 9.86384
1 21.3496 17.3008 10.6497
1 22.1433 16.5071 10.6497
1 22.1311 17.2813 9.86565
1 21.3443 16.5172 9.85897
1 22.937 17.3008 10.6497
1 23.7307 16.5071 10.6497
1 23.7103 17.2975 9.86637
1 22.9387 16.4992 9.85789
1 24.5244 17.3008 10.6497
1 25.3181 16.5071 10.6497
1 25.3252 17.263 9.86273
1 24.4914 16.5141 9.83613
1 26.1118 17.3008 10.6497
1 26.9055 16.5071 10.6497
1 26.9122 17.3153 9.86625
1 26.1534 16.4906 9.86176
1 27.6992 17.3008 10.6497
1 28.4929 16.5071 10.6497
1 28.4841 17.2951 9.85976
1 27.6821 16.503 9.85142
1 29.2866 17.3008 10.6497
1 0.08031 16.5071 10.6497
1 0.0657233 17.3265 9.85257
1 29.2477 16.5157 9.85485
1 0.874011 17.3008 10.6497
1 1.66771 16.5071 10.6497
1 1.67049 17.3218 9.85114
1 0.869696 16.5306 9.87915
1 2.46141 17.3008 10.6497
1 3.25511 16.5071 10.6497
1 3.23092 17.3107 9.86415
1 2.44798 16.4973 9.8591
1 4.04881 17.3008 10.6497
1 4.84251 16.5071 10.6497
1 4.84093 17.3196 9.88565
1 4.02185 16.5139 9.88591
1 5.63621 17.3008 10.6497
1 6.42991 16.5071 10.6497
1 6.43365 17.3213 9.85095
1 5.65344 16.5209 9.8681
1 7.22361 17.3008 10.6497
1 8.01732 16.5071 10.6497
1 7.99498 17.3121 9.85591
1 7.19145 16.5199 9.86613
1 8.81102 17.3008 10.6497
1 9.60472 16.5071 10.6497
1 9.60229 17.3211 9.84347
1 8.81449 16.5308 9.83483
1 10.3984 17.3008 10.6497
1 11.1921 16.5071 10.6497
1 11.1849 17.3035 9.85025
1 10.3898 16.5258 9.85462
1 11.9858 17.3008 10.6497
1 12.7795 16.5071 10.6497
1 12.7471 17.2958 9.84359
1 11.9539 16.5106 9.84355
1 13.5732 17.3008 10.6497
1 14.3669 16.5071 10.6497
1 14.2853 17.3206 9.82782
1 13.5541 16.5055 9.85762
1 15 15.7134 10.6497
1 15.7937 14.9197 10.6497
1 15.8232 15.7176 9.85366
1 15.0852 14.9402 9.82187
1 16.5874 15.7134 10.6497
1 17.3811 14.9197 10.6497
1 17.4041 15.7103 9.84433
1 16.6335 14.9341 9.85397
1 18.1748 15.7134 10.6497
1 18.9685 14.9197 10.6497
1 18.9807 15.7232 9.85583
1 18.1722 14.9073 9.88581
1 19.7622 15.7134 10.6497
1 20.5559 14.9197 10.6497
1 20.5705 15.7249 9.87593
1 19.7552 14.9308 9.86904
1 21.3496 15.7134 10.6497
1 22.1433 14.9197 10.6497
1 22.1479 15.7054 9.84236
1 21.3516 14.905 9.85443
1 22.937 15.7134 10.6497
1 23.7307 14.9197 10.6497
1 23.7233 15.7021 9.85342
1 22.9373 14.8971 9.86773
1 24.5244 15.7134 10.6497
1 25.3181 14.9197 10.6497
1 25.3165 15.7217 9.86689
1 24.5171 14.9196 9.85717
1 26.1118 15.7134 10.6497
1 26.9055 14.9197 10.6497
1 26.8942 15.6765 9.83935
1 26.1128 14.8981 9.8505
1 27.6992 15.7134 10.6497
1 28.4929 14.9197 10.6497
1 28.5129 15.7036 9.84721
1 27.713 14.9136 9.85809
1 29.2866 15.7134 10.6497
1 0.08031 14.9197 10.6497
1 0.0675957 15.73 9.853
1 29.2877 14.9402 9.87322
1 0.874011 15.7134 10.6497
1 1.66771 14.9197 10.6497
1 1.66378 15.7359 9.87878
1 0.858435 14.9371 9.84775
1 2.46141 15.7134 10.6497
1 3.25511 14.9197 10.6497
1 3.27392 15.7019 9.8582
1 2.46971 14.9291 9.87009
1 4.04881 15.7134 10.6497
1 4.84251 14.9197 10.6497
1 4.85534 15.7031 9.86031
1 4.04344 14.8959 9.8861
1 5.63621 15.7134 10.6497
1 6.42991 14.9197 10.6497
1 6.42158 15.7287 9.85252
1 5.64168 14.9133 9.84401
1 7.22361 15.7134 10.6497
1 8.01732 14.9197 10.6497
1 8.00297 15.7257 9.84014
1 7.22335 14.9063 9.85499
1 8.81102 15.7134 10.6497
1 9.60472 14.9197 10.6497
1 9.5923 15.7366 9.82787
1 8.80682 14.9122 9.84795
1 10.3984 15.7134 10.6497
1 11.1921 14.9197 10.6497
1 11.1618 15.7116 9.85876
1 10.3938 14.9057 9.83316
1 11.9858 15.7134 10.6497
1 12.7795 14.9197 10.6497
1 12.7357 15.6948 9.84716
1 11.9701 14.9023 9.86043
1 13.5732 15.7134 10.6497
1 14.3669 14.9197 10.6497
1 14.297 15.6806 9.81431
1 13.5342 14.895 9.84769
1 15 14.126 10.6497
1 15.7937 13.3323 10.6497
1 15.82 14.1238 9.84686
1 15.0747 13.3492 9.81713
1 16.5874 14.126 10.6497
1 17.3811 13.3323 10.6497
1 17.3712 14.1364 9.84348
1 16.597 13.3403 9.87202
1 18.1748 14.126 10.6497
1 18.9685 13.3323 10.6497
1 18.9553 14.1165 9.85448
1 18.1826 13.3259 9.85049
1 19.7622 14.126 10.6497
1 20.5559 13.3323 10.6497
1 20.5475 14.1464 9.84798
1 19.764 13.3161 9.86647
1 21.3496 14.126 10.6497
1 22.1433 13.3323 10.6497
1 22.1449 14.1409 9.86459
1 21.3503 13.3571 9.83942
1 22.937 14.126 10.6497
1 23.7307 13.3323 10.6497
1 23.7507 14.1117 9.84453
1 22.9452 13.3452 9.83253
1 24.5244 14.126 10.6497
1 25.3181 13.3323 10.6497
1 25.3228 14.1237 9.87016
1 24.4972 13.3326 9.84425
1 26.1118 14.126 10.6497
1 26.9055 13.3323 10.6497
1 26.9 14.1213 9.85652
1 26.1137 13.3241 9.85205
1 27.6992 14.126 10.6497
1 28.4929 13.3323 10.6497
1 28.4941 14.1338 9.8757
1 27.6973 13.3071 9.83509
1 29.2866 14.126 10.6497
1 0.08031 13.3323 10.6497
1 0.0721253 14.1303 9.85131
1 29.2979 13.3441 9.88984
1 0.874011 14.126 10.6497
1 1.66771 13.3323 10.6497
1 1.66522 14.1322 9.8459
1 0.885814 13.3582 9.8617
1 2.46141 14.126 10.6497
1 3.25511 13.3323 10.6497
1 3.23578 14.118 9.85832
1 2.45267 13.3352 9.87015
1 4.04881 14.126 10.6497
1 4.84251 13.3323 10.6497
1 4.85516 14.1004 9.84488
1 4.04085 13.3591 9.83808
1 5.63621 14.126 10.6497
1 6.42991 13.3323 10.6497
1 6.4332 14.111 9.84678
1 5.65372 13.3281 9.85373
1 7.22361 14.126 10.6497
1 8.01732 13.3323 10.6497
1 8.01148 14.126 9.86036
1 7.20341 13.3304 9.8352
1 8.81102 14.126 10.6497
1 9.60472 13.3323 10.6497
1 9.59576 14.1118 9.83643
1 8.81048 13.3319 9.88198
1 10.3984 14.126 10.6497
1 11.1921 13.3323 10.6497
1 11.1951 14.1253 9.83967
1 10.404 13.3371 9.8504
1 11.9858 14.126 10.6497
1 12.7795 13.3323 10.6497
1 12.7274 14.1378 9.84302
1 11.9673 13.3266 9.85406
1 13.5732 14.126 10.6497
1 14.3669 13.3323 10.6497
1 14.3319 14.1265 9.81862
1 13.5598 13.3523 9.85496
1 15 12.5386 10.6497
1 15.7937 11.7449 10.6497
1 15.8394 12.548 9.85921
1 15.0605 11.7298 9.83806
1 16.5874 12.5386 10.6497
1 17.3811 11.7449 10.6497
1 17.4156 12.5407 9.84446
1 16.6168 11.7389 9.87065
1 18.1748 12.5386 10.6497
1 18.9685 11.7449 10.6497
1 18.9909 12.5301 9.84478
1 18.1736 11.7483 9.86153
1 19.7622 12.5386 10.6497
1 20.5559 11.7449 10.6497
1 20.5821 12.5119 9.8622
1 19.7672 11.7377 9.85655
1 21.3496 12.5386 10.6497
1 22.1433 11.7449 10.6497
1 22.1333 12.5434 9.84179
1 21.3741 11.7431 9.84459
1 22.937 12.5386 10.6497
1 23.7307 11.7449 10.6497
1 23.7164 12.5405 9.8456
1 22.9371 11.7531 9.83265
1 24.5244 12.5386 10.6497
1 25.3181 11.7449 10.6497
1 25.3095 12.5497 9.8482
1 24.5146 11.7712 9.86103
1 26.1118 12.5386 10.6497
1 26.9055 11.7449 10.6497
1 26.8867 12.5397 9.8649
1 26.1093 11.7507 9.8544
1 27.6992 12.5386 10.6497
1 28.4929 11.7449 10.6497
1 28.48 12.5473 9.84402
1 27.6959 11.7734 9.86439
1 29.2866 12.5386 10.6497
1 0.08031 11.7449 10.6497
1 0.0971131 12.5357 9.86159
1 29.2802 11.7716 9.86038
1 0.874011 12.5386 10.6497
1 1.66771 11.7449 10.6497
1 1.68641 12.5207 9.84181
1 0.861604 11.737 9.86397
1 2.46141 12.5386 10.6497
1 3.25511 11.7449 10.6497
1 3.27421 12.5324 9.84573
1 2.47193 11.736 9.85228
1 4.04881 12.5386 10.6497
1 4.84251 11.7449 10.6497
1 4.82006 12.5313 9.85597
1 4.02983 11.7292 9.85777
1 5.63621 12.5386 10.6497
1 6.42991 11.7449 10.6497
1 6.43418 12.5134 9.84796
1 5.64373 11.7292 9.84912
1 7.22361 12.5386 10.6497
1 8.01732 11.7449 10.6497
1 8.04798 12.5432 9.85797
1 7.22469 11.7353 9.85103
1 8.81102 12.5386 10.6497
1 9.60472 11.7449 10.6497
1 9.6002 12.5264 9.83059
1 8.80602 11.7504 9.85196
1 10.3984 12.5386 10.6497
1 11.1921 11.7449 10.6497
1 11.1828 12.5365 9.88196
1 10.4015 11.7561 9.86311
1 11.9858 12.5386 10.6497
1 12.7795 11.7449 10.6497
1 12.7776 12.5318 9.85234
1 11.9762 11.7431 9.86875
1 13.5732 12.5386 10.6497
1 14.3669 11.7449 10.6497
1 14.2978 12.5449 9.84802
1 13.5449 11.7118 9.84824
1 15 10.9512 10.6497
1 15.7937 10.1575 10.6497
1 15.8491 10.954 9.84979
1 15.068 10.1512 9.82097
1 16.5874 10.9512 10.6497
1 17.3811 10.1575 10.6497
1 17.4011 10.9481 9.86474
1 16.6226 10.1435 9.83256
1 18.1748 10.9512 10.6497
1 18.9685 10.1575 10.6497
1 18.9611 10.9507 9.86792
1 18.1718 10.1634 9.86285
1 19.7622 10.9512 10.6497
1 20.5559 10.1575 10.6497
1 20.5883 10.9491 9.86545
1 19.7792 10.1791 9.85002
1 21.3496 10.9512 10.6497
1 22.1433 10.1575 10.6497
1 22.1668 10.9661 9.84977
1 21.3711 10.1686 9.85222
1 22.937 10.9512 10.6497
1 23.7307 10.1575 10.6497
1 23.7447 10.9526 9.8497
1 22.9364 10.1771 9.83521
1 24.5244 10.9512 10.6497
1 25.3181 10.1575 10.6497
1 25.3294 10.9713 9.89262
1 24.53 10.1798 9.86078
1 26.1118 10.9512 10.6497
1 26.9055 10.1575 10.6497
1 26.8985 10.9569 9.88503
1 26.119 10.1625 9.84462
1 27.6992 10.9512 10.6497
1 28.4929 10.1575 10.6497
1 28.5134 10.9512 9.86202
1 27.7066 10.1476 9.86125
1 29.2866 10.9512 10.6497
1 0.08031 10.1575 10.6497
1 0.0704938 10.926 9.85392
1 29.2707 10.1374 9.86668
1 0.874011 10.9512 10.6497
1 1.66771 10.1575 10.6497
1 1.65343 10.9481 9.86326
1 0.877763 10.169 9.85013
1 2.46141 10.9512 10.6497
1 3.25511 10.1575 10.6497
1 3.27698 10.9028 9.84057
1 2.45212 10.1359 9.8549
1 4.04881 10.9512 10.6497
1 4.84251 10.1575 10.6497
1 4.85839 10.93 9.84578
1 4.05723 10.1483 9.8625
1 5.63621 10.9512 10.6497
1 6.42991 10.1575 10.6497
1 6.43542 10.9283 9.86238
1 5.63252 10.1709 9.86449
1 7.22361 10.9512 10.6497
1 8.01732 10.1575 10.6497
1 8.01398 10.946 9.8536
1 7.22289 10.1444 9.83172
1 8.81102 10.9512 10.6497
1 9.60472 10.1575 10.6497
1 9.5978 10.9568 9.86311
1 8.80932 10.1569 9.84903
1 10.3984 10.9512 10.6497
1 11.1921 10.1575 10.6497
1 11.1892 10.9569 9.84546
1 10.4018 10.1696 9.8381
1 11.9858 10.9512 10.6497
1 12.7795 10.1575 10.6497
1 12.7455 10.9337 9.84407
1 11.9479 10.1347 9.83203
1 13.5732 10.9512 10.6497
1 14.3669 10.1575 10.6497
1 14.2935 10.9376 9.84025
1 13.5347 10.1413 9.83988
1 15 9.36379 10.6497
1 15.7937 8.57009 10.6497
1 15.839 9.35784 9.84119
1 15.0873 8.56736 9.82585
1 16.5874 9.36379 10.6497
1 17.3811 8.57009 10.6497
1 17.3932 9.36481 9.853
1 16.6185 8.57424 9.8679
1 18.1748 9.36379 10.6497
1 18.9685 8.57009 10.6497
1 19.0063 9.36212 9.86142
1 18.2028 8.57235 9.84209
1 19.7622 9.36379 10.6497
1 20.5559 8.57009 10.6497
1 20.5623 9.37486 9.83914
1 19.7861 8.57548 9.88313
1 21.3496 9.36379 10.6497
1 22.1433 8.57009 10.6497
1 22.1586 9.37731 9.86904
1 21.3617 8.58164 9.85626
1 22.937 9.36379 10.6497
1 23.7307 8.57009 10.6497
1 23.7244 9.36469 9.84961
1 22.9419 8.56841 9.87136
1 24.5244 9.36379 10.6497
1 25.3181 8.57009 10.6497
1 25.3122 9.38189 9.85845
1 24.5198 8.55919 9.85896
1 26.1118 9.36379 10.6497
1 26.9055 8.57009 10.6497
1 26.8811 9.36439 9.86043
1 26.1122 8.56066 9.85999
1 27.6992 9.36379 10.6497
1 28.4929 8.57009 10.6497
1 28.4921 9.34689 9.86245
1 27.6894 8.58566 9.86884
1 29.2866 9.36379 10.6497
1 0.08031 8.57009 10.6497
1 0.0739093 9.37792 9.85885
1 29.3087 8.55238 9.88064
1 0.874011 9.36379 10.6497
1 1.66771 8.57009 10.6497
1 1.66425 9.35631 9.84878
1 0.868035 8.58017 9.84911
1 2.46141 9.36379 10.6497
1 3.25511 8.57009 10.6497
1 3.24466 9.36345 9.81845
1 2.45902 8.55655 9.84761
1 4.04881 9.36379 10.6497
1 4.84251 8.57009 10.6497
1 4.84345 9.36275 9.85106
1 4.05703 8.56641 9.85474
1 5.63621 9.36379 10.6497
1 6.42991 8.57009 10.6497
1 6.41464 9.37158 9.8508
1 5.65562 8.58059 9.85401
1 7.22361 9.36379 10.6497
1 8.01732 8.57009 10.6497
1 8.00637 9.35782 9.86652
1 7.21502 8.57051 9.85423
1 8.81102 9.36379 10.6497
1 9.60472 8.57009 10.6497
1 9.60372 9.34174 9.86973
1 8.78816 8.54872 9.83931
1 10.3984 9.36379 10.6497
1 11.1921 8.57009 10.6497
1 11.1875 9.36348 9.8488
1 10.4029 8.59528 9.86115
1 11.9858 9.36379 10.6497
1 12.7795 8.57009 10.6497
1 12.7574 9.36119 9.8554
1 11.9582 8.57693 9.86931
1 13.5732 9.36379 10.6497
1 14.3669 8.57009 10.6497
1 14.3103 9.33409 9.83099
1 13.5521 8.58215 9.85703
1 15 7.77639 10.6497
1 15.7937 6.98268 10.6497
1 15.8434 7.77325 9.83299
1 15.0487 6.97029 9.82252
1 16.5874 7.77639 10.6497
1 17.3811 6.98268 10.6497
1 17.3848 7.79365 9.83502
1 16.6323 7.00618 9.85201
1 18.1748 7.77639 10.6497
1 18.9685 6.98268 10.6497
1 18.9865 7.79522 9.84746
1 18.1851 6.99404 9.85091
1 19.7622 7.77639 10.6497
1 20.5559 6.98268 10.6497
1 20.5546 7.76317 9.87421
1 19.7468 7.003 9.86503
1 21.3496 7.77639 10.6497
1 22.1433 6.98268 10.6497
1 22.1473 7.76268 9.87052
1 21.3642 6.9903 9.82907
1 22.937 7.77639 10.6497
1 23.7307 6.98268 10.6497
1 23.7308 7.78159 9.83965
1 22.9561 6.9699 9.85922
1 24.5244 7.77639 10.6497
1 25.3181 6.98268 10.6497
1 25.303 7.81068 9.8552
1 24.5368 6.98566 9.886
1 26.1118 7.77639 10.6497
1 26.9055 6.98268 10.6497
1 26.8938 7.7583 9.83727
1 26.0726 6.96307 9.84538
1 27.6992 7.77639 10.6497
1 28.4929 6.98268 10.6497
1 28.475 7.78505 9.86522
1 27.7058 6.9897 9.84149
1 29.2866 7.77639 10.6497
1 0.08031 6.98268 10.6497
1 0.0499242 7.7769 9.85562
1 29.2884 6.98114 9.85132
1 0.874011 7.77639 10.6497
1 1.66771 6.98268 10.6497
1 1.67816 7.77288 9.84421
1 0.859318 7.01564 9.86904
1 2.46141 7.77639 10.6497
1 3.25511 6.98268 10.6497
1 3.2613 7.75226 9.84309
1 2.45487 7.00166 9.83623
1 4.04881 7.77639 10.6497
1 4.84251 6.98268 10.6497
1 4.84629 7.76327 9.85914
1 4.05722 6.98658 9.82011
1 5.63621 7.77639 10.6497
1 6.42991 6.98268 10.6497
1 6.44557 7.77354 9.85985
1 5.63875 6.99346 9.85107
1 7.22361 7.77639 10.6497
1 8.01732 6.98268 10.6497
1 8.00935 7.77039 9.8423
1 7.21577 6.975 9.85256
1 8.81102 7.77639 10.6497
1 9.60472 6.98268 10.6497
1 9.5978 7.79637 9.8773
1 8.79698 6.98785 9.85826
1 10.3984 7.77639 10.6497
1 11.1921 6.98268 10.6497
1 11.1735 7.77268 9.87176
1 10.3929 6.97613 9.88709
1 11.9858 7.77639 10.6497
1 12.7795 6.98268 10.6497
1 12.7482 7.79014 9.84707
1 11.9555 6.98402 9.8198
1 13.5732 7.77639 10.6497
1 14.3669 6.98268 10.6497
1 14.2722 7.75568 9.81064
1 13.5151 6.95216 9.84971
1 15 6.18898 10.6497
1 15.7937 5.39528 10.6497
1 15.825 6.20495 9.85092
1 15.057 5.43445 9.84593
1 16.5874 6.18898 10.6497
1 17.3811 5.39528 10.6497
1 17.3919 6.19049 9.84199
1 16.601 5.36565 9.84189
1 18.1748 6.18898 10.6497
1 18.9685 5.39528 10.6497
1 18.9809 6.2042 9.83198
1 18.1829 5.39506 9.85878
1 19.7622 6.18898 10.6497
1 20.5559 5.39528 10.6497
1 20.573 6.19812 9.85138
1 19.7797 5.42806 9.86433
1 21.3496 6.18898 10.6497
1 22.1433 5.39528 10.6497
1 22.1573 6.19699 9.84756