9376
Atoms. Timestep: 4000000
1 30 3.55271e-15 12.0501
1 0.793701 29.2063 12.0501
1 0.830631 29.9081 11.1966
1 0.0369195 29.1672 11.2341
1 1.5874 3.55271e-15 12.0501
1 2.3811 29.2063 12.0501
1 2.41275 29.9469 11.2256
1 1.59999 29.193 11.2408
1 3.1748 3.55271e-15 12.0501
1 3.9685 29.2063 12.0501
1 4.00194 29.9335 11.237
1 3.18568 29.2086 11.2618
1 4.7622 3.55271e-15 12.0501
1 5.5559 29.2063 12.0501
1 5.56673 29.9014 11.2344
1 4.77329 29.1665 11.2461
1 6.3496 3.55271e-15 12.0501
1 7.1433 29.2063 12.0501
1 7.13367 29.9175 11.2224
1 6.35154 29.177 11.2614
1 7.93701 3.55271e-15 12.0501
1 8.73071 29.2063 12.0501
1 8.71556 29.9492 11.2276
1 7.94583 29.1842 11.2595
1 9.52441 3.55271e-15 12.0501
1 10.3181 29.2063 12.0501
1 10.3243 29.9368 11.2401
1 9.51462 29.1742 11.2756
1 11.1118 3.55271e-15 12.0501
1 11.9055 29.2063 12.0501
1 11.8914 29.9201 11.2241
1 11.0943 29.1543 11.2724
1 12.6992 3.55271e-15 12.0501
1 13.4929 29.2063 12.0501
1 13.5105 29.9167 11.2378
1 12.718 29.2045 11.2673
1 14.2866 3.55271e-15 12.0501
1 15.0803 29.2063 12.0501
1 15.0939 29.9521 11.227
1 14.2802 29.185 11.2363
1 15.874 3.55271e-15 12.0501
1 16.6677 29.2063 12.0501
1 16.6752 29.9104 11.2341
1 15.8693 29.1939 11.2496
1 17.4614 3.55271e-15 12.0501
1 18.2551 29.2063 12.0501
1 18.2782 29.9169 11.2265
1 17.4492 29.1708 11.2327
1 19.0488 3.55271e-15 12.0501
1 19.8425 29.2063 12.0501
1 19.8426 29.9017 11.2347
1 19.0423 29.1582 11.2694
1 20.6362 3.55271e-15 12.0501
1 21.4299 29.2063 12.0501
1 21.4343 29.9474 11.2085
1 20.6472 29.1501 11.2797
1 22.2236 3.55271e-15 12.0501
1 23.0173 29.2063 12.0501
1 23.023 29.9276 11.2229
1 22.1995 29.1666 11.2571
1 23.811 3.55271e-15 12.0501
1 24.6047 29.2063 12.0501
1 24.6158 29.9436 11.24
1 23.8326 29.1878 11.239
1 25.3984 3.55271e-15 12.0501
1 26.1921 29.2063 12.0501
1 26.1961 29.9129 11.2292
1 25.4257 29.163 11.2512
1 26.9858 3.55271e-15 12.0501
1 27.7795 29.2063 12.0501
1 27.7654 29.9284 11.2191
1 26.9886 29.1688 11.219
1 28.5732 3.55271e-15 12.0501
1 29.3669 29.2063 12.0501
1 29.2533 29.9483 11.1948
1 28.5125 29.1902 11.2445
1 30 28.4126 12.0501
1 0.793701 27.6189 12.0501
1 0.839272 28.3992 11.2286
1 0.0831862 27.6225 11.2414
1 1.5874 28.4126 12.0501
1 2.3811 27.6189 12.0501
1 2.39204 28.4165 11.2502
1 1.61636 27.6018 11.2431
1 3.1748 28.4126 12.0501
1 3.9685 27.6189 12.0501
1 3.99084 28.409 11.2656
1 3.18721 27.6075 11.2409
1 4.7622 28.4126 12.0501
1 5.5559 27.6189 12.0501
1 5.56932 28.3888 11.2528
1 4.74701 27.6285 11.2573
1 6.3496 28.4126 12.0501
1 7.1433 27.6189 12.0501
1 7.14305 28.3726 11.2675
1 6.37436 27.5945 11.2545
1 7.93701 28.4126 12.0501
1 8.73071 27.6189 12.0501
1 8.71313 28.4017 11.2538
1 7.9194 27.602 11.2176
1 9.52441 28.4126 12.0501
1 10.3181 27.6189 12.0501
1 10.2892 28.3738 11.256
1 9.49806 27.5866 11.2635
1 11.1118 28.4126 12.0501
1 11.9055 27.6189 12.0501
1 11.9118 28.4101 11.2752
1 11.1114 27.592 11.2547
1 12.6992 28.4126 12.0501
1 13.4929 27.6189 12.0501
1 13.5068 28.389 11.2368
1 12.7123 27.6087 11.2552
1 14.2866 28.4126 12.0501
1 15.0803 27.6189 12.0501
1 15.083 28.3927 11.2738
1 14.2867 27.582 11.2655
1 15.874 28.4126 12.0501
1 16.6677 27.6189 12.0501
1 16.6723 28.4066 11.2547
1 15.8807 27.6009 11.2513
1 17.4614 28.4126 12.0501
1 18.2551 27.6189 12.0501
1 18.2384 28.3915 11.2786
1 17.4501 27.5992 11.246
1 19.0488 28.4126 12.0501
1 19.8425 27.6189 12.0501
1 19.8554 28.4043 11.2706
1 19.0595 27.6183 11.2599
1 20.6362 28.4126 12.0501
1 21.4299 27.6189 12.0501
1 21.4278 28.3812 11.2431
1 20.6205 27.5808 11.259
1 22.2236 28.4126 12.0501
1 23.0173 27.6189 12.0501
1 22.9931 28.3939 11.2273
1 22.2156 27.5771 11.2364
1 23.811 28.4126 12.0501
1 24.6047 27.6189 12.0501
1 24.6113 28.3987 11.282
1 23.8125 27.5903 11.2442
1 25.3984 28.4126 12.0501
1 26.1921 27.6189 12.0501
1 26.2057 28.4082 11.2627
1 25.4179 27.6274 11.2707
1 26.9858 28.4126 12.0501
1 27.7795 27.6189 12.0501
1 27.7704 28.403 11.2586
1 26.9816 27.6038 11.256
1 28.5732 28.4126 12.0501
1 29.3669 27.6189 12.0501
1 29.3017 28.3904 11.2275
1 28.5413 27.6167 11.2523
1 30 26.8252 12.0501
1 0.793701 26.0315 12.0501
1 0.825302 26.7999 11.2492
1 0.080681 26.0204 11.2407
1 1.5874 26.8252 12.0501
1 2.3811 26.0315 12.0501
1 2.4093 26.8219 11.2612
1 1.60786 26.0318 11.2519
1 3.1748 26.8252 12.0501
1 3.9685 26.0315 12.0501
1 3.96789 26.8366 11.2571
1 3.18657 26.0335 11.2406
1 4.7622 26.8252 12.0501
1 5.5559 26.0315 12.0501
1 5.55598 26.8467 11.2489
1 4.7599 26.0631 11.2427
1 6.3496 26.8252 12.0501
1 7.1433 26.0315 12.0501
1 7.14821 26.7977 11.2325
1 6.35225 26.0345 11.2316
1 7.93701 26.8252 12.0501
1 8.73071 26.0315 12.0501
1 8.72192 26.8095 11.2374
1 7.93996 26.0402 11.2398
1 9.52441 26.8252 12.0501
1 10.3181 26.0315 12.0501
1 10.3254 26.8274 11.2566
1 9.53411 26.0512 11.2745
1 11.1118 26.8252 12.0501
1 11.9055 26.0315 12.0501
1 11.8978 26.8178 11.2864
1 11.0963 26.0095 11.2712
1 12.6992 26.8252 12.0501
1 13.4929 26.0315 12.0501
1 13.4968 26.818 11.2747
1 12.6859 26.0292 11.2688
1 14.2866 26.8252 12.0501
1 15.0803 26.0315 12.0501
1 15.0829 26.809 11.2827
1 14.2583 26.0006 11.2393
1 15.874 26.8252 12.0501
1 16.6677 26.0315 12.0501
1 16.6688 26.7974 11.2636
1 15.8666 26.021 11.2473
1 17.4614 26.8252 12.0501
1 18.2551 26.0315 12.0501
1 18.2558 26.8237 11.2347
1 17.4626 26.0223 11.2352
1 19.0488 26.8252 12.0501
1 19.8425 26.0315 12.0501
1 19.8578 26.8079 11.284
1 19.037 26.0012 11.2717
1 20.6362 26.8252 12.0501
1 21.4299 26.0315 12.0501
1 21.4173 26.8014 11.2417
1 20.6481 25.9908 11.2381
1 22.2236 26.8252 12.0501
1 23.0173 26.0315 12.0501
1 23.0283 26.8147 11.2499
1 22.2177 26.0223 11.2738
1 23.811 26.8252 12.0501
1 24.6047 26.0315 12.0501
1 24.6078 26.8245 11.2466
1 23.829 26.0312 11.2935
1 25.3984 26.8252 12.0501
1 26.1921 26.0315 12.0501
1 26.177 26.8302 11.2699
1 25.3815 26.0346 11.223
1 26.9858 26.8252 12.0501
1 27.7795 26.0315 12.0501
1 27.7702 26.8112 11.2518
1 26.9715 26.0349 11.2532
1 28.5732 26.8252 12.0501
1 29.3669 26.0315 12.0501
1 29.3113 26.7965 11.2225
1 28.5559 26.0187 11.2482
1 30 25.2378 12.0501
1 0.793701 24.4441 12.0501
1 0.825176 25.2128 11.2407
1 0.0582873 24.4337 11.2245
1 1.5874 25.2378 12.0501
1 2.3811 24.4441 12.0501
1 2.38085 25.2249 11.2473
1 1.62206 24.4206 11.2742
1 3.1748 25.2378 12.0501
1 3.9685 24.4441 12.0501
1 3.97048 25.2482 11.2659
1 3.19628 24.4312 11.2357
1 4.7622 25.2378 12.0501
1 5.5559 24.4441 12.0501
1 5.5272 25.2388 11.2672
1 4.75424 24.4459 11.2328
1 6.3496 25.2378 12.0501
1 7.1433 24.4441 12.0501
1 7.13353 25.2676 11.2833
1 6.32873 24.4458 11.2624
1 7.93701 25.2378 12.0501
1 8.73071 24.4441 12.0501
1 8.75375 25.2497 11.2384
1 7.94453 24.4611 11.2462
1 9.52441 25.2378 12.0501
1 10.3181 24.4441 12.0501
1 10.3088 25.2243 11.2331
1 9.54126 24.4495 11.2492
1 11.1118 25.2378 12.0501
1 11.9055 24.4441 12.0501
1 11.898 25.2314 11.2813
1 11.107 24.4457 11.2571
1 12.6992 25.2378 12.0501
1 13.4929 24.4441 12.0501
1 13.4825 25.229 11.2755
1 12.6579 24.4208 11.2583
1 14.2866 25.2378 12.0501
1 15.0803 24.4441 12.0501
1 15.0771 25.257 11.2562
1 14.2949 24.4474 11.2447
1 15.874 25.2378 12.0501
1 16.6677 24.4441 12.0501
1 16.675 25.2303 11.2521
1 15.8648 24.4435 11.2345
1 17.4614 25.2378 12.0501
1 18.2551 24.4441 12.0501
1 18.2551 25.2142 11.2629
1 17.4565 24.4503 11.25
1 19.0488 25.2378 12.0501
1 19.8425 24.4441 12.0501
1 19.8214 25.2286 11.2433
1 19.0505 24.4233 11.2479
1 20.6362 25.2378 12.0501
1 21.4299 24.4441 12.0501
1 21.4235 25.2174 11.2597
1 20.6391 24.437 11.2521
1 22.2236 25.2378 12.0501
1 23.0173 24.4441 12.0501
1 23.0056 25.229 11.248
1 22.2362 24.4372 11.2718
1 23.811 25.2378 12.0501
1 24.6047 24.4441 12.0501
1 24.6201 25.2271 11.2635
1 23.8263 24.4328 11.2673
1 25.3984 25.2378 12.0501
1 26.1921 24.4441 12.0501
1 26.1908 25.2335 11.2509
1 25.3754 24.413 11.2409
1 26.9858 25.2378 12.0501
1 27.7795 24.4441 12.0501
1 27.7856 25.2211 11.2761
1 26.9807 24.4122 11.2448
1 28.5732 25.2378 12.0501
1 29.3669 24.4441 12.0501
1 29.308 25.2418 11.2196
1 28.5333 24.4407 11.2625
1 30 23.6504 12.0501
1 0.793701 22.8567 12.0501
1 0.832814 23.6375 11.2466
1 0.0464507 22.8461 11.2178
1 1.5874 23.6504 12.0501
1 2.3811 22.8567 12.0501
1 2.40339 23.6689 11.2578
1 1.58967 22.8752 11.2482
1 3.1748 23.6504 12.0501
1 3.9685 22.8567 12.0501
1 3.99541 23.6456 11.2463
1 3.2007 22.8726 11.25
1 4.7622 23.6504 12.0501
1 5.5559 22.8567 12.0501
1 5.54901 23.6422 11.2648
1 4.77542 22.8466 11.2691
1 6.3496 23.6504 12.0501
1 7.1433 22.8567 12.0501
1 7.12668 23.664 11.237
1 6.33362 22.8782 11.2732
1 7.93701 23.6504 12.0501
1 8.73071 22.8567 12.0501
1 8.73828 23.6623 11.257
1 7.92506 22.831 11.2732
1 9.52441 23.6504 12.0501
1 10.3181 22.8567 12.0501
1 10.3363 23.643 11.2468
1 9.53643 22.8567 11.2758
1 11.1118 23.6504 12.0501
1 11.9055 22.8567 12.0501
1 11.8892 23.6285 11.2375
1 11.1258 22.857 11.2443
1 12.6992 23.6504 12.0501
1 13.4929 22.8567 12.0501
1 13.4633 23.673 11.2653
1 12.7008 22.855 11.2596
1 14.2866 23.6504 12.0501
1 15.0803 22.8567 12.0501
1 15.0726 23.6539 11.2487
1 14.2632 22.8986 11.2513
1 15.874 23.6504 12.0501
1 16.6677 22.8567 12.0501
1 16.6686 23.6597 11.2467
1 15.9022 22.862 11.2639
1 17.4614 23.6504 12.0501
1 18.2551 22.8567 12.0501
1 18.2195 23.6664 11.2524
1 17.4771 22.8406 11.2671
1 19.0488 23.6504 12.0501
1 19.8425 22.8567 12.0501
1 19.8453 23.6649 11.2559
1 19.0425 22.8612 11.2638
1 20.6362 23.6504 12.0501
1 21.4299 22.8567 12.0501
1 21.4405 23.6329 11.269
1 20.6191 22.8458 11.2717
1 22.2236 23.6504 12.0501
1 23.0173 22.8567 12.0501
1 23.0118 23.6183 11.2488
1 22.2362 22.8547 11.2556
1 23.811 23.6504 12.0501
1 24.6047 22.8567 12.0501
1 24.5777 23.6454 11.2377
1 23.8088 22.8587 11.274
1 25.3984 23.6504 12.0501
1 26.1921 22.8567 12.0501
1 26.2135 23.6579 11.2408
1 25.3808 22.8605 11.2657
1 26.9858 23.6504 12.0501
1 27.7795 22.8567 12.0501
1 27.7605 23.6309 11.2543
1 26.9841 22.8243 11.2414
1 28.5732 23.6504 12.0501
1 29.3669 22.8567 12.0501
1 29.3125 23.67 11.2163
1 28.5506 22.8287 11.2499
1 30 22.063 12.0501
1 0.793701 21.2693 12.0501
1 0.821123 22.0664 11.239
1 0.0628262 21.2661 11.2145
1 1.5874 22.063 12.0501
1 2.3811 21.2693 12.0501
1 2.37623 22.0711 11.2949
1 1.6001 21.2701 11.2678
1 3.1748 22.063 12.0501
1 3.9685 21.2693 12.0501
1 3.95917 22.0699 11.2443
1 3.20084 21.2893 11.2603
1 4.7622 22.063 12.0501
1 5.5559 21.2693 12.0501
1 5.57185 22.0795 11.2553
1 4.76316 21.2945 11.2542
1 6.3496 22.063 12.0501
1 7.1433 21.2693 12.0501
1 7.12842 22.0551 11.2563
1 6.33108 21.2764 11.2419
1 7.93701 22.063 12.0501
1 8.73071 21.2693 12.0501
1 8.72036 22.0586 11.275
1 7.91953 21.2525 11.2577
1 9.52441 22.063 12.0501
1 10.3181 21.2693 12.0501
1 10.3121 22.0581 11.2518
1 9.52294 21.2394 11.2603
1 11.1118 22.063 12.0501
1 11.9055 21.2693 12.0501
1 11.903 22.0435 11.2654
1 11.0868 21.2533 11.2421
1 12.6992 22.063 12.0501
1 13.4929 21.2693 12.0501
1 13.4829 22.0693 11.2815
1 12.692 21.2716 11.2689
1 14.2866 22.063 12.0501
1 15.0803 21.2693 12.0501
1 15.0866 22.0609 11.2508
1 14.2963 21.2568 11.2472
1 15.874 22.063 12.0501
1 16.6677 21.2693 12.0501
1 16.6602 22.0655 11.2746
1 15.8611 21.268 11.2878
1 17.4614 22.063 12.0501
1 18.2551 21.2693 12.0501
1 18.269 22.052 11.2767
1 17.4697 21.2695 11.2757
1 19.0488 22.063 12.0501
1 19.8425 21.2693 12.0501
1 19.8283 22.0662 11.2467
1 19.0041 21.2714 11.2502
1 20.6362 22.063 12.0501
1 21.4299 21.2693 12.0501
1 21.4377 22.0612 11.2697
1 20.5986 21.2479 11.3092
1 22.2236 22.063 12.0501
1 23.0173 21.2693 12.0501
1 23.0244 22.0533 11.2548
1 22.227 21.2583 11.2751
1 23.811 22.063 12.0501
1 24.6047 21.2693 12.0501
1 24.5942 22.0978 11.253
1 23.7998 21.254 11.2619
1 25.3984 22.063 12.0501
1 26.1921 21.2693 12.0501
1 26.1811 22.0732 11.2663
1 25.4076 21.2731 11.2683
1 26.9858 22.063 12.0501
1 27.7795 21.2693 12.0501
1 27.7754 22.0785 11.232
1 26.98 21.2843 11.252
1 28.5732 22.063 12.0501
1 29.3669 21.2693 12.0501
1 29.2701 22.0408 11.1995
1 28.5561 21.2739 11.239
1 30 20.4756 12.0501
1 0.793701 19.6819 12.0501
1 0.844419 20.4845 11.2402
1 0.0803591 19.7026 11.2245
1 1.5874 20.4756 12.0501
1 2.3811 19.6819 12.0501
1 2.39295 20.4733 11.2485
1 1.58227 19.6865 11.2354
1 3.1748 20.4756 12.0501
1 3.9685 19.6819 12.0501
1 3.99323 20.4814 11.2477
1 3.19107 19.6983 11.243
1 4.7622 20.4756 12.0501
1 5.5559 19.6819 12.0501
1 5.54338 20.4761 11.2493
1 4.76366 19.6845 11.2296
1 6.3496 20.4756 12.0501
1 7.1433 19.6819 12.0501
1 7.15228 20.4649 11.257
1 6.36762 19.6449 11.2659
1 7.93701 20.4756 12.0501
1 8.73071 19.6819 12.0501
1 8.72306 20.4744 11.2738
1 7.94279 19.6829 11.2637
1 9.52441 20.4756 12.0501
1 10.3181 19.6819 12.0501
1 10.3402 20.4873 11.2505
1 9.54187 19.682 11.2403
1 11.1118 20.4756 12.0501
1 11.9055 19.6819 12.0501
1 11.8939 20.4938 11.2711
1 11.1293 19.666 11.2695
1 12.6992 20.4756 12.0501
1 13.4929 19.6819 12.0501
1 13.49 20.4959 11.2703
1 12.7216 19.699 11.2569
1 14.2866 20.4756 12.0501
1 15.0803 19.6819 12.0501
1 15.0582 20.4681 11.2739
1 14.2704 19.6857 11.2657
1 15.874 20.4756 12.0501
1 16.6677 19.6819 12.0501
1 16.6681 20.4903 11.2636
1 15.885 19.687 11.257
1 17.4614 20.4756 12.0501
1 18.2551 19.6819 12.0501
1 18.2552 20.4824 11.2472
1 17.4591 19.6753 11.254
1 19.0488 20.4756 12.0501
1 19.8425 19.6819 12.0501
1 19.8219 20.4664 11.2745
1 19.0354 19.6927 11.2497
1 20.6362 20.4756 12.0501
1 21.4299 19.6819 12.0501
1 21.4051 20.4663 11.2678
1 20.6259 19.6756 11.2668
1 22.2236 20.4756 12.0501
1 23.0173 19.6819 12.0501
1 23.0155 20.4728 11.2523
1 22.1999 19.6823 11.2666
1 23.811 20.4756 12.0501
1 24.6047 19.6819 12.0501
1 24.6115 20.462 11.2688
1 23.822 19.6858 11.244
1 25.3984 20.4756 12.0501
1 26.1921 19.6819 12.0501
1 26.1851 20.4896 11.2589
1 25.4009 19.685 11.2691
1 26.9858 20.4756 12.0501
1 27.7795 19.6819 12.0501
1 27.7662 20.5088 11.2678
1 26.9464 19.7087 11.2593
1 28.5732 20.4756 12.0501
1 29.3669 19.6819 12.0501
1 29.3089 20.474 11.2178
1 28.5201 19.6802 11.2772
1 30 18.8882 12.0501
1 0.793701 18.0945 12.0501
1 0.828233 18.8865 11.2624
1 0.051959 18.1119 11.222
1 1.5874 18.8882 12.0501
1 2.3811 18.0945 12.0501
1 2.37616 18.8811 11.2482
1 1.61145 18.0662 11.282
1 3.1748 18.8882 12.0501
1 3.9685 18.0945 12.0501
1 3.96953 18.8886 11.2458
1 3.17601 18.1243 11.2477
1 4.7622 18.8882 12.0501
1 5.5559 18.0945 12.0501
1 5.54416 18.8635 11.2468
1 4.7456 18.1095 11.2248
1 6.3496 18.8882 12.0501
1 7.1433 18.0945 12.0501
1 7.16303 18.8787 11.2589
1 6.36082 18.1203 11.2497
1 7.93701 18.8882 12.0501
1 8.73071 18.0945 12.0501
1 8.69888 18.8725 11.2511
1 7.93114 18.0832 11.2703
1 9.52441 18.8882 12.0501
1 10.3181 18.0945 12.0501
1 10.3139 18.9087 11.2442
1 9.54096 18.1045 11.2774
1 11.1118 18.8882 12.0501
1 11.9055 18.0945 12.0501
1 11.8985 18.8796 11.2668
1 11.115 18.0937 11.2425
1 12.6992 18.8882 12.0501
1 13.4929 18.0945 12.0501
1 13.5048 18.8939 11.2441
1 12.7153 18.0897 11.2705
1 14.2866 18.8882 12.0501
1 15.0803 18.0945 12.0501
1 15.0827 18.8936 11.2558
1 14.3138 18.0929 11.2738
1 15.874 18.8882 12.0501
1 16.6677 18.0945 12.0501
1 16.6573 18.8891 11.2619
1 15.8674 18.0759 11.2504
1 17.4614 18.8882 12.0501
1 18.2551 18.0945 12.0501
1 18.2421 18.9143 11.2592
1 17.482 18.0955 11.2419
1 19.0488 18.8882 12.0501
1 19.8425 18.0945 12.0501
1 19.8237 18.9054 11.2476
1 19.0235 18.1241 11.2636
1 20.6362 18.8882 12.0501
1 21.4299 18.0945 12.0501
1 21.4206 18.89 11.266
1 20.6174 18.1029 11.2712
1 22.2236 18.8882 12.0501
1 23.0173 18.0945 12.0501
1 23.0253 18.8909 11.2775
1 22.2217 18.0722 11.242
1 23.811 18.8882 12.0501
1 24.6047 18.0945 12.0501
1 24.5965 18.8967 11.2681
1 23.8086 18.0964 11.2614
1 25.3984 18.8882 12.0501
1 26.1921 18.0945 12.0501
1 26.1794 18.8819 11.2476
1 25.4125 18.0801 11.2804
1 26.9858 18.8882 12.0501
1 27.7795 18.0945 12.0501
1 27.7372 18.8997 11.2585
1 26.9775 18.0833 11.259
1 28.5732 18.8882 12.0501
1 29.3669 18.0945 12.0501
1 29.298 18.9096 11.211
1 28.5497 18.1085 11.2519
1 30 17.3008 12.0501
1 0.793701 16.5071 12.0501
1 0.833566 17.2649 11.2501
1 0.0626688 16.5077 11.2361
1 1.5874 17.3008 12.0501
1 2.3811 16.5071 12.0501
1 2.38937 17.2861 11.2619
1 1.57588 16.4971 11.249
1 3.1748 17.3008 12.0501
1 3.9685 16.5071 12.0501
1 3.95975 17.3387 11.2732
1 3.16812 16.5138 11.2661
1 4.7622 17.3008 12.0501
1 5.5559 16.5071 12.0501
1 5.56596 17.3176 11.255
1 4.78499 16.486 11.2313
1 6.3496 17.3008 12.0501
1 7.1433 16.5071 12.0501
1 7.11865 17.3295 11.2506
1 6.33771 16.5073 11.2537
1 7.93701 17.3008 12.0501
1 8.73071 16.5071 12.0501
1 8.72935 17.3418 11.2966
1 7.92392 16.5298 11.2727
1 9.52441 17.3008 12.0501
1 10.3181 16.5071 12.0501
1 10.3091 17.3113 11.253
1 9.49092 16.4958 11.2801
1 11.1118 17.3008 12.0501
1 11.9055 16.5071 12.0501
1 11.8827 17.3237 11.2744
1 11.1183 16.5066 11.2509
1 12.6992 17.3008 12.0501
1 13.4929 16.5071 12.0501
1 13.4957 17.3129 11.2763
1 12.696 16.5466 11.252
1 14.2866 17.3008 12.0501
1 15.0803 16.5071 12.0501
1 15.0761 17.3118 11.2305
1 14.2822 16.5164 11.2479
1 15.874 17.3008 12.0501
1 16.6677 16.5071 12.0501
1 16.6416 17.2984 11.242
1 15.8777 16.5225 11.2512
1 17.4614 17.3008 12.0501
1 18.2551 16.5071 12.0501
1 18.2599 17.3322 11.2473
1 17.4483 16.4953 11.2821
1 19.0488 17.3008 12.0501
1 19.8425 16.5071 12.0501
1 19.8217 17.2962 11.2562
1 19.0358 16.477 11.2512
1 20.6362 17.3008 12.0501
1 21.4299 16.5071 12.0501
1 21.4064 17.3064 11.2819
1 20.6289 16.492 11.2439
1 22.2236 17.3008 12.0501
1 23.0173 16.5071 12.0501
1 23.0165 17.2674 11.241
1 22.2303 16.4842 11.2233
1 23.811 17.3008 12.0501
1 24.6047 16.5071 12.0501
1 24.6115 17.2963 11.2699
1 23.8058 16.4897 11.2742
1 25.3984 17.3008 12.0501
1 26.1921 16.5071 12.0501
1 26.1962 17.3134 11.243
1 25.4072 16.5051 11.2687
1 26.9858 17.3008 12.0501
1 27.7795 16.5071 12.0501
1 27.7769 17.2974 11.2637
1 26.9573 16.4924 11.2552
1 28.5732 17.3008 12.0501
1 29.3669 16.5071 12.0501
1 29.306 17.2735 11.2039
1 28.5434 16.5108 11.2506
1 30 15.7134 12.0501
1 0.793701 14.9197 12.0501
1 0.804952 15.6947 11.2526
1 0.0600226 14.912 11.2259
1 1.5874 15.7134 12.0501
1 2.3811 14.9197 12.0501
1 2.38634 15.7208 11.2446
1 1.60134 14.9183 11.2599
1 3.1748 15.7134 12.0501
1 3.9685 14.9197 12.0501
1 3.96597 15.7538 11.2456
1 3.1881 14.9217 11.2666
1 4.7622 15.7134 12.0501
1 5.5559 14.9197 12.0501
1 5.55889 15.7236 11.2589
1 4.76062 14.9582 11.2648
1 6.3496 15.7134 12.0501
1 7.1433 14.9197 12.0501
1 7.13137 15.7085 11.2721
1 6.36376 14.9182 11.2781
1 7.93701 15.7134 12.0501
1 8.73071 14.9197 12.0501
1 8.72347 15.7289 11.2504
1 7.93006 14.9196 11.2657
1 9.52441 15.7134 12.0501
1 10.3181 14.9197 12.0501
1 10.3224 15.7037 11.2317
1 9.50981 14.9105 11.2619
1 11.1118 15.7134 12.0501
1 11.9055 14.9197 12.0501
1 11.9252 15.7291 11.2368
1 11.1366 14.9037 11.2715
1 12.6992 15.7134 12.0501
1 13.4929 14.9197 12.0501
1 13.4656 15.7091 11.2582
1 12.698 14.9278 11.2557
1 14.2866 15.7134 12.0501
1 15.0803 14.9197 12.0501
1 15.0784 15.7536 11.2546
1 14.2774 14.9319 11.2787
1 15.874 15.7134 12.0501
1 16.6677 14.9197 12.0501
1 16.6495 15.7249 11.2761
1 15.8587 14.9149 11.2664
1 17.4614 15.7134 12.0501
1 18.2551 14.9197 12.0501
1 18.2748 15.6906 11.2651
1 17.4677 14.9421 11.2453
1 19.0488 15.7134 12.0501
1 19.8425 14.9197 12.0501
1 19.8404 15.6871 11.2517
1 19.0658 14.9068 11.2481
1 20.6362 15.7134 12.0501
1 21.4299 14.9197 12.0501
1 21.4356 15.6875 11.2426
1 20.6264 14.9156 11.2783
1 22.2236 15.7134 12.0501
1 23.0173 14.9197 12.0501
1 23.0092 15.7281 11.2342
1 22.1898 14.8997 11.2426
1 23.811 15.7134 12.0501
1 24.6047 14.9197 12.0501
1 24.5679 15.6967 11.2734
1 23.806 14.9392 11.2714
1 25.3984 15.7134 12.0501
1 26.1921 14.9197 12.0501
1 26.1805 15.7229 11.3007
1 25.3796 14.9219 11.2702
1 26.9858 15.7134 12.0501
1 27.7795 14.9197 12.0501
1 27.7503 15.7094 11.242
1 26.9886 14.9187 11.262
1 28.5732 15.7134 12.0501
1 29.3669 14.9197 12.0501
1 29.2893 15.7006 11.2345
1 28.5275 14.9175 11.2447
1 30 14.126 12.0501
1 0.793701 13.3323 12.0501
1 0.815978 14.1186 11.2782
1 0.0704609 13.3085 11.2064
1 1.5874 14.126 12.0501
1 2.3811 13.3323 12.0501
1 2.37798 14.1173 11.2559
1 1.56649 13.3252 11.2249
1 3.1748 14.126 12.0501
1 3.9685 13.3323 12.0501
1 3.96167 14.1178 11.2397
1 3.18149 13.3364 11.2481
1 4.7622 14.126 12.0501
1 5.5559 13.3323 12.0501
1 5.5565 14.1302 11.2505
1 4.78322 13.3219 11.241
1 6.3496 14.126 12.0501
1 7.1433 13.3323 12.0501
1 7.13169 14.1078 11.2374
1 6.35637 13.365 11.2798
1 7.93701 14.126 12.0501
1 8.73071 13.3323 12.0501
1 8.7059 14.0984 11.2649
1 7.93387 13.3441 11.2821
1 9.52441 14.126 12.0501
1 10.3181 13.3323 12.0501
1 10.3609 14.1276 11.2589
1 9.51043 13.3215 11.2491
1 11.1118 14.126 12.0501
1 11.9055 13.3323 12.0501
1 11.931 14.1325 11.2617
1 11.1088 13.3211 11.2381
1 12.6992 14.126 12.0501
1 13.4929 13.3323 12.0501
1 13.4703 14.1216 11.272
1 12.7076 13.3328 11.248
1 14.2866 14.126 12.0501
1 15.0803 13.3323 12.0501
1 15.0982 14.1277 11.255
1 14.297 13.3542 11.2307
1 15.874 14.126 12.0501
1 16.6677 13.3323 12.0501
1 16.6495 14.1514 11.2502
1 15.8852 13.3231 11.2367
1 17.4614 14.126 12.0501
1 18.2551 13.3323 12.0501
1 18.2467 14.1233 11.2633
1 17.4665 13.3352 11.2717
1 19.0488 14.126 12.0501
1 19.8425 13.3323 12.0501
1 19.8319 14.0944 11.2797
1 19.045 13.3237 11.2637
1 20.6362 14.126 12.0501
1 21.4299 13.3323 12.0501
1 21.4227 14.143 11.2824
1 20.6594 13.3463 11.2626
1 22.2236 14.126 12.0501
1 23.0173 13.3323 12.0501
1 23.0171 14.1443 11.2632
1 22.2067 13.326 11.2439
1 23.811 14.126 12.0501
1 24.6047 13.3323 12.0501
1 24.6018 14.1222 11.2736
1 23.8121 13.3444 11.2737
1 25.3984 14.126 12.0501
1 26.1921 13.3323 12.0501
1 26.181 14.1172 11.2597
1 25.391 13.3363 11.2768
1 26.9858 14.126 12.0501
1 27.7795 13.3323 12.0501
1 27.7828 14.1155 11.2521
1 26.9698 13.3375 11.2486
1 28.5732 14.126 12.0501
1 29.3669 13.3323 12.0501
1 29.3129 14.1132 11.225
1 28.5487 13.334 11.2459
1 30 12.5386 12.0501
1 0.793701 11.7449 12.0501
1 0.818599 12.5015 11.2506
1 0.0452197 11.7584 11.222
1 1.5874 12.5386 12.0501
1 2.3811 11.7449 12.0501
1 2.39595 12.5514 11.2663
1 1.64288 11.7535 11.2646
1 3.1748 12.5386 12.0501
1 3.9685 11.7449 12.0501
1 3.97456 12.526 11.2514
1 3.16149 11.7394 11.2817
1 4.7622 12.5386 12.0501
1 5.5559 11.7449 12.0501
1 5.54346 12.5361 11.2756
1 4.7432 11.7373 11.2451
1 6.3496 12.5386 12.0501
1 7.1433 11.7449 12.0501
1 7.13093 12.5399 11.2498
1 6.36158 11.7349 11.2721
1 7.93701 12.5386 12.0501
1 8.73071 11.7449 12.0501
1 8.70326 12.5392 11.2409
1 7.95195 11.7494 11.2674
1 9.52441 12.5386 12.0501
1 10.3181 11.7449 12.0501
1 10.3115 12.5341 11.2454
1 9.53911 11.7373 11.2534
1 11.1118 12.5386 12.0501
1 11.9055 11.7449 12.0501
1 11.9119 12.5478 11.2491
1 11.1163 11.7493 11.2735
1 12.6992 12.5386 12.0501
1 13.4929 11.7449 12.0501
1 13.4841 12.522 11.2364
1 12.6934 11.7658 11.222
1 14.2866 12.5386 12.0501
1 15.0803 11.7449 12.0501
1 15.0888 12.5249 11.2493
1 14.2762 11.7263 11.2633
1 15.874 12.5386 12.0501
1 16.6677 11.7449 12.0501
1 16.6733 12.5383 11.263
1 15.8606 11.7534 11.2383
1 17.4614 12.5386 12.0501
1 18.2551 11.7449 12.0501
1 18.2636 12.5445 11.2412
1 17.4647 11.7174 11.237
1 19.0488 12.5386 12.0501
1 19.8425 11.7449 12.0501
1 19.8453 12.5346 11.2441
1 19.0444 11.7264 11.23
1 20.6362 12.5386 12.0501
1 21.4299 11.7449 12.0501
1 21.43 12.5394 11.2332
1 20.6501 11.7625 11.2707
1 22.2236 12.5386 12.0501
1 23.0173 11.7449 12.0501
1 23.0227 12.5499 11.2472
1 22.2166 11.7418 11.2489
1 23.811 12.5386 12.0501
1 24.6047 11.7449 12.0501
1 24.5974 12.5427 11.2666
1 23.8162 11.7292 11.2766
1 25.3984 12.5386 12.0501
1 26.1921 11.7449 12.0501
1 26.1802 12.5464 11.2653
1 25.3974 11.7457 11.2538
1 26.9858 12.5386 12.0501
1 27.7795 11.7449 12.0501
1 27.773 12.547 11.2529
1 26.9856 11.7443 11.2648
1 28.5732 12.5386 12.0501
1 29.3669 11.7449 12.0501
1 29.2697 12.5394 11.251
1 28.5193 11.7178 11.2219
1 30 10.9512 12.0501
1 0.793701 10.1575 12.0501
1 0.842773 10.9618 11.2559
1 0.0608963 10.1576 11.2307
1 1.5874 10.9512 12.0501
1 2.3811 10.1575 12.0501
1 2.39282 10.9448 11.2678
1 1.61689 10.1418 11.2523
1 3.1748 10.9512 12.0501
1 3.9685 10.1575 12.0501
1 3.94848 10.9447 11.2754
1 3.17547 10.1268 11.2561
1 4.7622 10.9512 12.0501
1 5.5559 10.1575 12.0501
1 5.58431 10.9563 11.2602
1 4.74632 10.1717 11.2461
1 6.3496 10.9512 12.0501
1 7.1433 10.1575 12.0501
1 7.14431 10.9324 11.2645
1 6.3401 10.1528 11.2594
1 7.93701 10.9512 12.0501
1 8.73071 10.1575 12.0501
1 8.77679 10.9394 11.2625
1 7.94002 10.1735 11.2647
1 9.52441 10.9512 12.0501
1 10.3181 10.1575 12.0501
1 10.3275 10.936 11.2385
1 9.5488 10.1542 11.2758
1 11.1118 10.9512 12.0501
1 11.9055 10.1575 12.0501
1 11.9217 10.9578 11.2724
1 11.1144 10.153 11.244
1 12.6992 10.9512 12.0501
1 13.4929 10.1575 12.0501
1 13.4735 10.9625 11.2553
1 12.7422 10.1281 11.2539
1 14.2866 10.9512 12.0501
1 15.0803 10.1575 12.0501
1 15.0786 10.9334 11.2418
1 14.2817 10.1428 11.2449
1 15.874 10.9512 12.0501
1 16.6677 10.1575 12.0501
1 16.6755 10.9593 11.264
1 15.906 10.1721 11.2659
1 17.4614 10.9512 12.0501
1 18.2551 10.1575 12.0501
1 18.2546 10.9211 11.2767
1 17.449 10.1483 11.2422
1 19.0488 10.9512 12.0501
1 19.8425 10.1575 12.0501
1 19.865 10.9386 11.2512
1 19.0781 10.1343 11.2539
1 20.6362 10.9512 12.0501
1 21.4299 10.1575 12.0501
1 21.453 10.9561 11.2605
1 20.647 10.1432 11.2686
1 22.2236 10.9512 12.0501
1 23.0173 10.1575 12.0501
1 23.0252 10.96 11.2467
1 22.2216 10.176 11.2675
1 23.811 10.9512 12.0501
1 24.6047 10.1575 12.0501
1 24.5997 10.9236 11.2554
1 23.7939 10.1512 11.2598
1 25.3984 10.9512 12.0501
1 26.1921 10.1575 12.0501
1 26.2062 10.9465 11.2533
1 25.39 10.1716 11.2643
1 26.9858 10.9512 12.0501
1 27.7795 10.1575 12.0501
1 27.7486 10.9618 11.2491
1 26.9591 10.1646 11.2544
1 28.5732 10.9512 12.0501
1 29.3669 10.1575 12.0501
1 29.283 10.9421 11.2244
1 28.4938 10.133 11.2522
1 30 9.36379 12.0501
1 0.793701 8.57009 12.0501
1 0.82176 9.37287 11.2676
1 0.049245 8.57454 11.2085
1 1.5874 9.36379 12.0501
1 2.3811 8.57009 12.0501
1 2.38099 9.34597 11.2401
1 1.62256 8.5618 11.2672
1 3.1748 9.36379 12.0501
1 3.9685 8.57009 12.0501
1 3.9735 9.3895 11.2585
1 3.18604 8.58991 11.2498
1 4.7622 9.36379 12.0501
1 5.5559 8.57009 12.0501
1 5.52631 9.35958 11.2561
1 4.75002 8.58148 11.2635
1 6.3496 9.36379 12.0501
1 7.1433 8.57009 12.0501
1 7.12842 9.40422 11.2535
1 6.35496 8.5674 11.2585
1 7.93701 9.36379 12.0501
1 8.73071 8.57009 12.0501
1 8.72265 9.35181 11.2152
1 7.92587 8.59916 11.2332
1 9.52441 9.36379 12.0501
1 10.3181 8.57009 12.0501
1 10.3396 9.36775 11.2344
1 9.51542 8.55954 11.2538
1 11.1118 9.36379 12.0501
1 11.9055 8.57009 12.0501
1 11.9051 9.35788 11.2612
1 11.1286 8.57532 11.2619
1 12.6992 9.36379 12.0501
1 13.4929 8.57009 12.0501
1 13.479 9.35623 11.2714
1 12.7112 8.57614 11.2432
1 14.2866 9.36379 12.0501
1 15.0803 8.57009 12.0501
1 15.0793 9.37373 11.2477
1 14.2627 8.57213 11.2556
1 15.874 9.36379 12.0501
1 16.6677 8.57009 12.0501
1 16.694 9.35782 11.2623
1 15.8676 8.56902 11.272
1 17.4614 9.36379 12.0501
1 18.2551 8.57009 12.0501
1 18.2428 9.34941 11.2515
1 17.4533 8.5566 11.279
1 19.0488 9.36379 12.0501
1 19.8425 8.57009 12.0501
1 19.8563 9.35262 11.2323
1 19.0717 8.56293 11.2568
1 20.6362 9.36379 12.0501
1 21.4299 8.57009 12.0501
1 21.4373 9.35871 11.2595
1 20.647 8.57513 11.2291
1 22.2236 9.36379 12.0501
1 23.0173 8.57009 12.0501
1 23.0178 9.36739 11.2663
1 22.2226 8.57464 11.2242
1 23.811 9.36379 12.0501
1 24.6047 8.57009 12.0501
1 24.6101 9.3629 11.2399
1 23.8311 8.58422 11.2494
1 25.3984 9.36379 12.0501
1 26.1921 8.57009 12.0501
1 26.1679 9.36614 11.2632
1 25.3578 8.56732 11.2474
1 26.9858 9.36379 12.0501
1 27.7795 8.57009 12.0501
1 27.7595 9.34963 11.2492
1 26.9667 8.58537 11.2809
1 28.5732 9.36379 12.0501
1 29.3669 8.57009 12.0501
1 29.302 9.36 11.2266
1 28.5235 8.57292 11.2484
1 30 7.77639 12.0501
1 0.793701 6.98268 12.0501
1 0.827007 7.77077 11.2677
1 0.0646611 6.97603 11.2218
1 1.5874 7.77639 12.0501
1 2.3811 6.98268 12.0501
1 2.39797 7.78553 11.2545
1 1.62772 6.98179 11.259
1 3.1748 7.77639 12.0501
1 3.9685 6.98268 12.0501
1 3.98487 7.79372 11.2429
1 3.18894 6.97425 11.2344
1 4.7622 7.77639 12.0501
1 5.5559 6.98268 12.0501
1 5.5458 7.78736 11.2738
1 4.7602 6.96846 11.2381
1 6.3496 7.77639 12.0501
1 7.1433 6.98268 12.0501
1 7.14235 7.78741 11.2397
1 6.318 6.97655 11.2423
1 7.93701 7.77639 12.0501
1 8.73071 6.98268 12.0501
1 8.72135 7.75648 11.2431
1 7.93463 6.99062 11.2709
1 9.52441 7.77639 12.0501
1 10.3181 6.98268 12.0501
1 10.3311 7.7869 11.2697
1 9.53618 6.97183 11.2475
1 11.1118 7.77639 12.0501
1 11.9055 6.98268 12.0501
1 11.9038 7.78357 11.2569
1 11.0903 6.98338 11.266
1 12.6992 7.77639 12.0501
1 13.4929 6.98268 12.0501
1 13.4789 7.79132 11.2619
1 12.6596 6.99461 11.2653
1 14.2866 7.77639 12.0501
1 15.0803 6.98268 12.0501
1 15.1056 7.79688 11.2483
1 14.2649 7.02147 11.2529
1 15.874 7.77639 12.0501
1 16.6677 6.98268 12.0501
1 16.6536 7.78093 11.2635
1 15.8542 6.9758 11.2406
1 17.4614 7.77639 12.0501
1 18.2551 6.98268 12.0501
1 18.2291 7.78435 11.2633
1 17.4509 6.97847 11.2281
1 19.0488 7.77639 12.0501
1 19.8425 6.98268 12.0501
1 19.8537 7.76607 11.2169
1 19.0372 7.00873 11.2536
1 20.6362 7.77639 12.0501
1 21.4299 6.98268 12.0501
1 21.4444 7.78591 11.2541
1 20.6302 6.9913 11.2622
1 22.2236 7.77639 12.0501
1 23.0173 6.98268 12.0501
1 23.0346 7.77753 11.2548
1 22.2371 7.01597 11.2541
1 23.811 7.77639 12.0501
1 24.6047 6.98268 12.0501
1 24.5782 7.78404 11.2673
1 23.8157 7.00064 11.2437
1 25.3984 7.77639 12.0501
1 26.1921 6.98268 12.0501
1 26.1789 7.77262 11.2627
1 25.378 6.95402 11.2546
1 26.9858 7.77639 12.0501
1 27.7795 6.98268 12.0501
1 27.7401 7.74141 11.2329
1 26.9857 6.98261 11.2454
1 28.5732 7.77639 12.0501
1 29.3669 6.98268 12.0501
1 29.3021 7.79413 11.2256
1 28.5384 6.96955 11.245
1 30 6.18898 12.0501
1 0.793701 5.39528 12.0501
1 0.836821 6.1776 11.2228
1 0.0579393 5.40728 11.2164
1 1.5874 6.18898 12.0501
1 2.3811 5.39528 12.0501
1 2.40173 6.1702 11.2253
1 1.60992 5.38862 11.2405
1 3.1748 6.18898 12.0501
1 3.9685 5.39528 12.0501
1 3.98079 6.16388 11.2281
1 3.17226 5.37271 11.2639
1 4.7622 6.18898 12.0501
1 5.5559 5.39528 12.0501
1 5.56325 6.18472 11.2423
1 4.76097 5.39619 11.2475
1 6.3496 6.18898 12.0501
1 7.1433 5.39528 12.0501
1 7.11903 6.19499 11.2522
1 6.35426 5.38368 11.2651
1 7.93701 6.18898 12.0501
1 8.73071 5.39528 12.0501
1 8.73617 6.19236 11.2455
1 7.93854 5.37322 11.2541
1 9.52441 6.18898 12.0501