9376
Atoms. Timestep: 4000000
1 22.5 3.55271e-15 10.6484
1 23.2937 29.2063 10.6484
1 23.3119 29.9253 9.81783
1 22.5725 29.1782 9.79176
1 24.0874 3.55271e-15 10.6484
1 24.8811 29.2063 10.6484
1 24.9091 29.9223 9.80593
1 24.1076 29.1754 9.84547
1 25.6748 3.55271e-15 10.6484
1 26.4685 29.2063 10.6484
1 26.4734 29.9375 9.81063
1 25.6664 29.1574 9.83774
1 27.2622 3.55271e-15 10.6484
1 28.0559 29.2063 10.6484
1 28.0719 29.9008 9.81871
1 27.2772 29.1776 9.8595
1 28.8496 3.55271e-15 10.6484
1 29.6433 29.2063 10.6484
1 29.6566 29.9351 9.81929
1 28.8611 29.1977 9.84076
1 0.437005 3.55271e-15 10.6484
1 1.23071 29.2063 10.6484
1 1.23286 29.9334 9.82515
1 0.465103 29.188 9.83515
1 2.02441 3.55271e-15 10.6484
1 2.81811 29.2063 10.6484
1 2.82457 29.9106 9.80218
1 2.021 29.1666 9.87325
1 3.61181 3.55271e-15 10.6484
1 4.40551 29.2063 10.6484
1 4.40437 29.9162 9.80307
1 3.57857 29.1991 9.84816
1 5.19921 3.55271e-15 10.6484
1 5.99291 29.2063 10.6484
1 5.99591 29.9245 9.83243
1 5.21683 29.1926 9.85302
1 6.78661 3.55271e-15 10.6484
1 7.58031 29.2063 10.6484
1 7.5859 29.9229 9.8298
1 6.79941 29.1647 9.8422
1 8.37401 3.55271e-15 10.6484
1 9.16771 29.2063 10.6484
1 9.15733 29.9398 9.82024
1 8.38458 29.1578 9.85286
1 9.96141 3.55271e-15 10.6484
1 10.7551 29.2063 10.6484
1 10.731 29.9336 9.78698
1 9.95154 29.1886 9.85321
1 11.5488 3.55271e-15 10.6484
1 12.3425 29.2063 10.6484
1 12.3429 29.9509 9.81913
1 11.5224 29.1888 9.85499
1 13.1362 3.55271e-15 10.6484
1 13.9299 29.2063 10.6484
1 13.9413 29.9521 9.81026
1 13.1474 29.1963 9.85558
1 14.7236 3.55271e-15 10.6484
1 15.5173 29.2063 10.6484
1 15.5155 29.9321 9.82839
1 14.7322 29.173 9.85103
1 16.311 3.55271e-15 10.6484
1 17.1047 29.2063 10.6484
1 17.0941 29.9139 9.8185
1 16.3066 29.1397 9.80293
1 17.8984 3.55271e-15 10.6484
1 18.6921 29.2063 10.6484
1 18.6769 29.9214 9.83078
1 17.8984 29.1651 9.8416
1 19.4858 3.55271e-15 10.6484
1 20.2795 29.2063 10.6484
1 20.2621 29.9323 9.8127
1 19.4604 29.1842 9.82605
1 21.0732 3.55271e-15 10.6484
1 21.8669 29.2063 10.6484
1 21.8231 29.9426 9.80364
1 21.0631 29.1834 9.84622
1 22.5 28.4126 10.6484
1 23.2937 27.6189 10.6484
1 23.3192 28.3697 9.82402
1 22.5553 27.6003 9.81462
1 24.0874 28.4126 10.6484
1 24.8811 27.6189 10.6484
1 24.8738 28.4094 9.86016
1 24.1132 27.6083 9.8581
1 25.6748 28.4126 10.6484
1 26.4685 27.6189 10.6484
1 26.449 28.389 9.88475
1 25.6729 27.6447 9.8536
1 27.2622 28.4126 10.6484
1 28.0559 27.6189 10.6484
1 28.0665 28.4244 9.83098
1 27.2515 27.6268 9.84186
1 28.8496 28.4126 10.6484
1 29.6433 27.6189 10.6484
1 29.6582 28.3909 9.85959
1 28.8103 27.5968 9.84146
1 0.437005 28.4126 10.6484
1 1.23071 27.6189 10.6484
1 1.22626 28.3869 9.88766
1 0.443001 27.5987 9.85856
1 2.02441 28.4126 10.6484
1 2.81811 27.6189 10.6484
1 2.81762 28.3985 9.85443
1 2.00153 27.6329 9.86426
1 3.61181 28.4126 10.6484
1 4.40551 27.6189 10.6484
1 4.38415 28.3841 9.84365
1 3.62123 27.6196 9.85835
1 5.19921 28.4126 10.6484
1 5.99291 27.6189 10.6484
1 5.98523 28.3866 9.87137
1 5.18848 27.5872 9.87946
1 6.78661 28.4126 10.6484
1 7.58031 27.6189 10.6484
1 7.58758 28.4022 9.85764
1 6.79328 27.6203 9.88324
1 8.37401 28.4126 10.6484
1 9.16771 27.6189 10.6484
1 9.17705 28.4024 9.86165
1 8.38075 27.6289 9.86373
1 9.96141 28.4126 10.6484
1 10.7551 27.6189 10.6484
1 10.7462 28.3867 9.86372
1 9.96623 27.6234 9.84512
1 11.5488 28.4126 10.6484
1 12.3425 27.6189 10.6484
1 12.3444 28.4093 9.84386
1 11.5724 27.5864 9.88916
1 13.1362 28.4126 10.6484
1 13.9299 27.6189 10.6484
1 13.9307 28.3984 9.85313
1 13.129 27.5902 9.84487
1 14.7236 28.4126 10.6484
1 15.5173 27.6189 10.6484
1 15.5084 28.4015 9.82347
1 14.7345 27.6071 9.86261
1 16.311 28.4126 10.6484
1 17.1047 27.6189 10.6484
1 17.0975 28.409 9.84832
1 16.3152 27.6221 9.85543
1 17.8984 28.4126 10.6484
1 18.6921 27.6189 10.6484
1 18.6878 28.3873 9.85602
1 17.8912 27.6071 9.85987
1 19.4858 28.4126 10.6484
1 20.2795 27.6189 10.6484
1 20.2583 28.3993 9.83755
1 19.4696 27.5755 9.85244
1 21.0732 28.4126 10.6484
1 21.8669 27.6189 10.6484
1 21.8001 28.3739 9.81623
1 21.0254 27.5816 9.86112
1 22.5 26.8252 10.6484
1 23.2937 26.0315 10.6484
1 23.3338 26.7935 9.87148
1 22.5779 26.0173 9.81095
1 24.0874 26.8252 10.6484
1 24.8811 26.0315 10.6484
1 24.8821 26.8109 9.86267
1 24.1011 26.0224 9.8681
1 25.6748 26.8252 10.6484
1 26.4685 26.0315 10.6484
1 26.4728 26.8153 9.85712
1 25.6907 26.0353 9.88701
1 27.2622 26.8252 10.6484
1 28.0559 26.0315 10.6484
1 28.0391 26.7978 9.86825
1 27.2571 26.0425 9.84572
1 28.8496 26.8252 10.6484
1 29.6433 26.0315 10.6484
1 29.6441 26.8032 9.84794
1 28.8232 26.0255 9.87145
1 0.437005 26.8252 10.6484
1 1.23071 26.0315 10.6484
1 1.21406 26.8557 9.85215
1 0.419097 26.0242 9.87491
1 2.02441 26.8252 10.6484
1 2.81811 26.0315 10.6484
1 2.79034 26.8491 9.88454
1 1.99308 26.0603 9.85747
1 3.61181 26.8252 10.6484
1 4.40551 26.0315 10.6484
1 4.40353 26.8223 9.88188
1 3.61004 26.0346 9.87212
1 5.19921 26.8252 10.6484
1 5.99291 26.0315 10.6484
1 6.01779 26.8225 9.84152
1 5.18516 26.0108 9.8454
1 6.78661 26.8252 10.6484
1 7.58031 26.0315 10.6484
1 7.58317 26.8511 9.86478
1 6.77871 26.0401 9.86043
1 8.37401 26.8252 10.6484
1 9.16771 26.0315 10.6484
1 9.19109 26.8315 9.86251
1 8.37412 26.0398 9.86141
1 9.96141 26.8252 10.6484
1 10.7551 26.0315 10.6484
1 10.7555 26.8168 9.85354
1 9.96681 26.0117 9.86393
1 11.5488 26.8252 10.6484
1 12.3425 26.0315 10.6484
1 12.3485 26.8121 9.85984
1 11.5711 26.0259 9.84847
1 13.1362 26.8252 10.6484
1 13.9299 26.0315 10.6484
1 13.9221 26.816 9.85591
1 13.1496 26.0066 9.86923
1 14.7236 26.8252 10.6484
1 15.5173 26.0315 10.6484
1 15.5342 26.8285 9.856
1 14.7341 26.0234 9.8457
1 16.311 26.8252 10.6484
1 17.1047 26.0315 10.6484
1 17.1251 26.8265 9.86572
1 16.3311 26.0275 9.84689
1 17.8984 26.8252 10.6484
1 18.6921 26.0315 10.6484
1 18.6948 26.8004 9.85563
1 17.9091 25.993 9.86852
1 19.4858 26.8252 10.6484
1 20.2795 26.0315 10.6484
1 20.2487 26.8136 9.8544
1 19.4522 26.0276 9.86479
1 21.0732 26.8252 10.6484
1 21.8669 26.0315 10.6484
1 21.8001 26.8094 9.81254
1 21.0436 26.0189 9.84352
1 22.5 25.2378 10.6484
1 23.2937 24.4441 10.6484
1 23.3244 25.2183 9.81334
1 22.5686 24.4225 9.8207
1 24.0874 25.2378 10.6484
1 24.8811 24.4441 10.6484
1 24.9052 25.252 9.83972
1 24.1229 24.4397 9.83872
1 25.6748 25.2378 10.6484
1 26.4685 24.4441 10.6484
1 26.473 25.2581 9.85952
1 25.6797 24.4746 9.83477
1 27.2622 25.2378 10.6484
1 28.0559 24.4441 10.6484
1 28.0463 25.2435 9.86266
1 27.2696 24.4341 9.86416
1 28.8496 25.2378 10.6484
1 29.6433 24.4441 10.6484
1 29.6222 25.228 9.85035
1 28.8431 24.4345 9.83159
1 0.437005 25.2378 10.6484
1 1.23071 24.4441 10.6484
1 1.20912 25.2441 9.85861
1 0.421629 24.417 9.85265
1 2.02441 25.2378 10.6484
1 2.81811 24.4441 10.6484
1 2.82471 25.2383 9.84643
1 2.02731 24.4444 9.83896
1 3.61181 25.2378 10.6484
1 4.40551 24.4441 10.6484
1 4.4034 25.2554 9.86429
1 3.62344 24.4377 9.87273
1 5.19921 25.2378 10.6484
1 5.99291 24.4441 10.6484
1 5.98486 25.2447 9.859
1 5.194 24.4547 9.88535
1 6.78661 25.2378 10.6484
1 7.58031 24.4441 10.6484
1 7.57951 25.2486 9.87406
1 6.8092 24.4423 9.88382
1 8.37401 25.2378 10.6484
1 9.16771 24.4441 10.6484
1 9.16854 25.2401 9.84361
1 8.39261 24.4402 9.87115
1 9.96141 25.2378 10.6484
1 10.7551 24.4441 10.6484
1 10.788 25.228 9.85335
1 9.95891 24.4492 9.86022
1 11.5488 25.2378 10.6484
1 12.3425 24.4441 10.6484
1 12.3594 25.2166 9.86089
1 11.5663 24.4288 9.86332
1 13.1362 25.2378 10.6484
1 13.9299 24.4441 10.6484
1 13.9605 25.243 9.86463
1 13.1756 24.417 9.86627
1 14.7236 25.2378 10.6484
1 15.5173 24.4441 10.6484
1 15.5244 25.2417 9.86884
1 14.7055 24.4539 9.86209
1 16.311 25.2378 10.6484
1 17.1047 24.4441 10.6484
1 17.0977 25.2445 9.86476
1 16.2963 24.4478 9.85134
1 17.8984 25.2378 10.6484
1 18.6921 24.4441 10.6484
1 18.7044 25.2377 9.8384
1 17.8891 24.4464 9.84927
1 19.4858 25.2378 10.6484
1 20.2795 24.4441 10.6484
1 20.2306 25.2284 9.84064
1 19.4571 24.4177 9.84045
1 21.0732 25.2378 10.6484
1 21.8669 24.4441 10.6484
1 21.7891 25.2335 9.80215
1 21.0493 24.4504 9.84561
1 22.5 23.6504 10.6484
1 23.2937 22.8567 10.6484
1 23.3633 23.6588 9.84886
1 22.5578 22.8629 9.82042
1 24.0874 23.6504 10.6484
1 24.8811 22.8567 10.6484
1 24.8894 23.6454 9.85661
1 24.1197 22.8556 9.87643
1 25.6748 23.6504 10.6484
1 26.4685 22.8567 10.6484
1 26.4842 23.6528 9.84245
1 25.6738 22.8485 9.8779
1 27.2622 23.6504 10.6484
1 28.0559 22.8567 10.6484
1 28.0615 23.6695 9.84735
1 27.2715 22.8715 9.8906
1 28.8496 23.6504 10.6484
1 29.6433 22.8567 10.6484
1 29.6331 23.6408 9.87547
1 28.8496 22.8375 9.88524
1 0.437005 23.6504 10.6484
1 1.23071 22.8567 10.6484
1 1.23195 23.6605 9.86419
1 0.437167 22.8749 9.86158
1 2.02441 23.6504 10.6484
1 2.81811 22.8567 10.6484
1 2.82837 23.6374 9.85533
1 2.00342 22.8626 9.86227
1 3.61181 23.6504 10.6484
1 4.40551 22.8567 10.6484
1 4.39999 23.6586 9.86223
1 3.62296 22.8459 9.83755
1 5.19921 23.6504 10.6484
1 5.99291 22.8567 10.6484
1 5.98381 23.6716 9.87926
1 5.19164 22.8575 9.85963
1 6.78661 23.6504 10.6484
1 7.58031 22.8567 10.6484
1 7.56657 23.645 9.85589
1 6.81753 22.8494 9.86571
1 8.37401 23.6504 10.6484
1 9.16771 22.8567 10.6484
1 9.18206 23.6437 9.85839
1 8.38842 22.8783 9.84661
1 9.96141 23.6504 10.6484
1 10.7551 22.8567 10.6484
1 10.7631 23.6353 9.85248
1 9.95597 22.868 9.838
1 11.5488 23.6504 10.6484
1 12.3425 22.8567 10.6484
1 12.3453 23.6637 9.86278
1 11.5644 22.8574 9.87452
1 13.1362 23.6504 10.6484
1 13.9299 22.8567 10.6484
1 13.9648 23.6426 9.84088
1 13.1451 22.8666 9.85074
1 14.7236 23.6504 10.6484
1 15.5173 22.8567 10.6484
1 15.5211 23.66 9.87813
1 14.723 22.8453 9.84634
1 16.311 23.6504 10.6484
1 17.1047 22.8567 10.6484
1 17.0864 23.6499 9.87112
1 16.3078 22.8413 9.86206
1 17.8984 23.6504 10.6484
1 18.6921 22.8567 10.6484
1 18.6744 23.6413 9.84057
1 17.8578 22.856 9.84125
1 19.4858 23.6504 10.6484
1 20.2795 22.8567 10.6484
1 20.2565 23.65 9.82882
1 19.466 22.839 9.84778
1 21.0732 23.6504 10.6484
1 21.8669 22.8567 10.6484
1 21.8023 23.6336 9.83729
1 21.0198 22.8356 9.84811
1 22.5 22.063 10.6484
1 23.2937 21.2693 10.6484
1 23.3248 22.07 9.85502
1 22.5707 21.2866 9.83134
1 24.0874 22.063 10.6484
1 24.8811 21.2693 10.6484
1 24.8954 22.0513 9.85712
1 24.1094 21.2948 9.86516
1 25.6748 22.063 10.6484
1 26.4685 21.2693 10.6484
1 26.479 22.0468 9.85999
1 25.6634 21.253 9.8448
1 27.2622 22.063 10.6484
1 28.0559 21.2693 10.6484
1 28.0447 22.0513 9.85899
1 27.2472 21.2471 9.87653
1 28.8496 22.063 10.6484
1 29.6433 21.2693 10.6484
1 29.6433 22.0482 9.85655
1 28.8519 21.2572 9.87964
1 0.437005 22.063 10.6484
1 1.23071 21.2693 10.6484
1 1.22082 22.0548 9.86416
1 0.420616 21.277 9.83717
1 2.02441 22.063 10.6484
1 2.81811 21.2693 10.6484
1 2.80759 22.0817 9.86691
1 2.03766 21.2825 9.82955
1 3.61181 22.063 10.6484
1 4.40551 21.2693 10.6484
1 4.40068 22.065 9.87964
1 3.59863 21.2469 9.8423
1 5.19921 22.063 10.6484
1 5.99291 21.2693 10.6484
1 5.96758 22.071 9.86165
1 5.19261 21.2645 9.88773
1 6.78661 22.063 10.6484
1 7.58031 21.2693 10.6484
1 7.59889 22.0581 9.8757
1 6.78118 21.2614 9.86935
1 8.37401 22.063 10.6484
1 9.16771 21.2693 10.6484
1 9.19719 22.0638 9.85158
1 8.40531 21.2548 9.82669
1 9.96141 22.063 10.6484
1 10.7551 21.2693 10.6484
1 10.7499 22.0537 9.85948
1 9.98201 21.2606 9.85873
1 11.5488 22.063 10.6484
1 12.3425 21.2693 10.6484
1 12.342 22.0832 9.86647
1 11.5526 21.2354 9.8599
1 13.1362 22.063 10.6484
1 13.9299 21.2693 10.6484
1 13.9353 22.081 9.83449
1 13.1539 21.2814 9.88297
1 14.7236 22.063 10.6484
1 15.5173 21.2693 10.6484
1 15.5177 22.0413 9.85336
1 14.6995 21.2811 9.85764
1 16.311 22.063 10.6484
1 17.1047 21.2693 10.6484
1 17.0901 22.0579 9.85843
1 16.3147 21.2731 9.86111
1 17.8984 22.063 10.6484
1 18.6921 21.2693 10.6484
1 18.6822 22.0575 9.86424
1 17.918 21.2527 9.85012
1 19.4858 22.063 10.6484
1 20.2795 21.2693 10.6484
1 20.2621 22.0552 9.8606
1 19.4334 21.2589 9.84091
1 21.0732 22.063 10.6484
1 21.8669 21.2693 10.6484
1 21.7883 22.0623 9.8152
1 21.0262 21.2421 9.85233
1 22.5 20.4756 10.6484
1 23.2937 19.6819 10.6484
1 23.3079 20.4631 9.84157
1 22.5644 19.6926 9.80893
1 24.0874 20.4756 10.6484
1 24.8811 19.6819 10.6484
1 24.8945 20.4967 9.86736
1 24.1006 19.6972 9.85981
1 25.6748 20.4756 10.6484
1 26.4685 19.6819 10.6484
1 26.4471 20.4554 9.8707
1 25.6635 19.6592 9.88769
1 27.2622 20.4756 10.6484
1 28.0559 19.6819 10.6484
1 28.0549 20.4827 9.85074
1 27.246 19.6941 9.85705
1 28.8496 20.4756 10.6484
1 29.6433 19.6819 10.6484
1 29.6137 20.4772 9.87594
1 28.8482 19.6721 9.85058
1 0.437005 20.4756 10.6484
1 1.23071 19.6819 10.6484
1 1.20806 20.487 9.86928
1 0.426794 19.7007 9.85893
1 2.02441 20.4756 10.6484
1 2.81811 19.6819 10.6484
1 2.80997 20.454 9.83608
1 2.01273 19.6616 9.85154
1 3.61181 20.4756 10.6484
1 4.40551 19.6819 10.6484
1 4.39173 20.4577 9.86565
1 3.64813 19.6762 9.85881
1 5.19921 20.4756 10.6484
1 5.99291 19.6819 10.6484
1 5.98672 20.4657 9.84944
1 5.19819 19.6887 9.8471
1 6.78661 20.4756 10.6484
1 7.58031 19.6819 10.6484
1 7.57318 20.4599 9.8689
1 6.81001 19.6865 9.85338
1 8.37401 20.4756 10.6484
1 9.16771 19.6819 10.6484
1 9.19977 20.4701 9.85072
1 8.3684 19.6895 9.87008
1 9.96141 20.4756 10.6484
1 10.7551 19.6819 10.6484
1 10.7612 20.4649 9.84417
1 9.96179 19.6769 9.84891
1 11.5488 20.4756 10.6484
1 12.3425 19.6819 10.6484
1 12.3447 20.4738 9.86364
1 11.5676 19.6848 9.85906
1 13.1362 20.4756 10.6484
1 13.9299 19.6819 10.6484
1 13.9313 20.4682 9.8366
1 13.1279 19.6877 9.85512
1 14.7236 20.4756 10.6484
1 15.5173 19.6819 10.6484
1 15.5214 20.4935 9.85629
1 14.703 19.6981 9.85612
1 16.311 20.4756 10.6484
1 17.1047 19.6819 10.6484
1 17.1104 20.475 9.84613
1 16.3146 19.6609 9.8618
1 17.8984 20.4756 10.6484
1 18.6921 19.6819 10.6484
1 18.6986 20.449 9.85097
1 17.9045 19.6791 9.84598
1 19.4858 20.4756 10.6484
1 20.2795 19.6819 10.6484
1 20.2518 20.4864 9.85803
1 19.4759 19.6796 9.84454
1 21.0732 20.4756 10.6484
1 21.8669 19.6819 10.6484
1 21.807 20.462 9.82304
1 21.0243 19.6965 9.84169
1 22.5 18.8882 10.6484
1 23.2937 18.0945 10.6484
1 23.3202 18.875 9.84768
1 22.5355 18.0871 9.82216
1 24.0874 18.8882 10.6484
1 24.8811 18.0945 10.6484
1 24.8887 18.8941 9.83863
1 24.0958 18.0826 9.84913
1 25.6748 18.8882 10.6484
1 26.4685 18.0945 10.6484
1 26.466 18.9055 9.86388
1 25.682 18.0899 9.84131
1 27.2622 18.8882 10.6484
1 28.0559 18.0945 10.6484
1 28.0476 18.8791 9.84743
1 27.2648 18.1063 9.85486
1 28.8496 18.8882 10.6484
1 29.6433 18.0945 10.6484
1 29.6505 18.878 9.83919
1 28.8412 18.0899 9.86947
1 0.437005 18.8882 10.6484
1 1.23071 18.0945 10.6484
1 1.2058 18.8869 9.84378
1 0.413891 18.1022 9.85015
1 2.02441 18.8882 10.6484
1 2.81811 18.0945 10.6484
1 2.83118 18.8861 9.84966
1 2.03337 18.1132 9.84505
1 3.61181 18.8882 10.6484
1 4.40551 18.0945 10.6484
1 4.39523 18.8863 9.8649
1 3.6163 18.1184 9.86357
1 5.19921 18.8882 10.6484
1 5.99291 18.0945 10.6484
1 5.98325 18.8916 9.85697
1 5.20155 18.0942 9.8513
1 6.78661 18.8882 10.6484
1 7.58031 18.0945 10.6484
1 7.58268 18.9003 9.84946
1 6.78995 18.1144 9.84876
1 8.37401 18.8882 10.6484
1 9.16771 18.0945 10.6484
1 9.14884 18.8972 9.86241
1 8.38094 18.0868 9.85851
1 9.96141 18.8882 10.6484
1 10.7551 18.0945 10.6484
1 10.7483 18.896 9.87084
1 9.96552 18.1195 9.85099
1 11.5488 18.8882 10.6484
1 12.3425 18.0945 10.6484
1 12.3495 18.8725 9.86414
1 11.5698 18.1037 9.85501
1 13.1362 18.8882 10.6484
1 13.9299 18.0945 10.6484
1 13.9456 18.8904 9.82645
1 13.1307 18.0895 9.84966
1 14.7236 18.8882 10.6484
1 15.5173 18.0945 10.6484
1 15.5233 18.8899 9.83276
1 14.7026 18.0797 9.83944
1 16.311 18.8882 10.6484
1 17.1047 18.0945 10.6484
1 17.1135 18.8649 9.86509
1 16.3084 18.0999 9.83588
1 17.8984 18.8882 10.6484
1 18.6921 18.0945 10.6484
1 18.6806 18.8859 9.84023
1 17.8943 18.1139 9.84326
1 19.4858 18.8882 10.6484
1 20.2795 18.0945 10.6484
1 20.2499 18.8866 9.87369
1 19.4573 18.0805 9.87004
1 21.0732 18.8882 10.6484
1 21.8669 18.0945 10.6484
1 21.7696 18.8907 9.81172
1 21.0386 18.09 9.84481
1 22.5 17.3008 10.6484
1 23.2937 16.5071 10.6484
1 23.293 17.2793 9.85191
1 22.5764 16.4953 9.81694
1 24.0874 17.3008 10.6484
1 24.8811 16.5071 10.6484
1 24.8985 17.3051 9.87568
1 24.115 16.5193 9.82275
1 25.6748 17.3008 10.6484
1 26.4685 16.5071 10.6484
1 26.4731 17.2808 9.84826
1 25.6848 16.4866 9.8507
1 27.2622 17.3008 10.6484
1 28.0559 16.5071 10.6484
1 28.0652 17.3024 9.85826
1 27.2817 16.5049 9.87113
1 28.8496 17.3008 10.6484
1 29.6433 16.5071 10.6484
1 29.646 17.2905 9.84931
1 28.8421 16.4936 9.86077
1 0.437005 17.3008 10.6484
1 1.23071 16.5071 10.6484
1 1.25576 17.3339 9.85605
1 0.443742 16.5322 9.86997
1 2.02441 17.3008 10.6484
1 2.81811 16.5071 10.6484
1 2.79897 17.3026 9.86558
1 2.00841 16.4902 9.83849
1 3.61181 17.3008 10.6484
1 4.40551 16.5071 10.6484
1 4.3836 17.3023 9.87301
1 3.61353 16.5125 9.85828
1 5.19921 17.3008 10.6484
1 5.99291 16.5071 10.6484
1 6.01965 17.3308 9.86363
1 5.17605 16.5203 9.87077
1 6.78661 17.3008 10.6484
1 7.58031 16.5071 10.6484
1 7.56467 17.3217 9.83606
1 6.80681 16.5115 9.84868
1 8.37401 17.3008 10.6484
1 9.16771 16.5071 10.6484
1 9.17106 17.3132 9.8579
1 8.3821 16.527 9.86721
1 9.96141 17.3008 10.6484
1 10.7551 16.5071 10.6484
1 10.7556 17.3179 9.85661
1 9.96306 16.5294 9.84559
1 11.5488 17.3008 10.6484
1 12.3425 16.5071 10.6484
1 12.3421 17.2961 9.83573
1 11.5331 16.5241 9.83202
1 13.1362 17.3008 10.6484
1 13.9299 16.5071 10.6484
1 13.9226 17.2998 9.84582
1 13.1464 16.5013 9.86669
1 14.7236 17.3008 10.6484
1 15.5173 16.5071 10.6484
1 15.528 17.3402 9.86746
1 14.7275 16.5118 9.84454
1 16.311 17.3008 10.6484
1 17.1047 16.5071 10.6484
1 17.0989 17.2908 9.86617
1 16.2996 16.5123 9.8503
1 17.8984 17.3008 10.6484
1 18.6921 16.5071 10.6484
1 18.6798 17.2785 9.8532
1 17.8752 16.4843 9.85664
1 19.4858 17.3008 10.6484
1 20.2795 16.5071 10.6484
1 20.2345 17.299 9.85287
1 19.4723 16.4999 9.86303
1 21.0732 17.3008 10.6484
1 21.8669 16.5071 10.6484
1 21.7921 17.2997 9.8305
1 21.0398 16.535 9.86547
1 22.5 15.7134 10.6484
1 23.2937 14.9197 10.6484
1 23.3259 15.7096 9.83148
1 22.5634 14.9002 9.82825
1 24.0874 15.7134 10.6484
1 24.8811 14.9197 10.6484
1 24.8632 15.7084 9.86595
1 24.0821 14.9113 9.85406
1 25.6748 15.7134 10.6484
1 26.4685 14.9197 10.6484
1 26.4514 15.7027 9.8456
1 25.6982 14.8989 9.8456
1 27.2622 15.7134 10.6484
1 28.0559 14.9197 10.6484
1 28.0773 15.6742 9.84803
1 27.2745 14.9119 9.85697
1 28.8496 15.7134 10.6484
1 29.6433 14.9197 10.6484
1 29.6558 15.7228 9.85696
1 28.847 14.9244 9.85179
1 0.437005 15.7134 10.6484
1 1.23071 14.9197 10.6484
1 1.21793 15.7505 9.84784
1 0.444513 14.9356 9.84421
1 2.02441 15.7134 10.6484
1 2.81811 14.9197 10.6484
1 2.83345 15.7109 9.86927
1 2.02504 14.9384 9.863
1 3.61181 15.7134 10.6484
1 4.40551 14.9197 10.6484
1 4.40251 15.7218 9.85265
1 3.59984 14.9162 9.86823
1 5.19921 15.7134 10.6484
1 5.99291 14.9197 10.6484
1 5.98491 15.7084 9.84674
1 5.18447 14.9017 9.83801
1 6.78661 15.7134 10.6484
1 7.58031 14.9197 10.6484
1 7.57508 15.73 9.85374
1 6.78598 14.9032 9.85792
1 8.37401 15.7134 10.6484
1 9.16771 14.9197 10.6484
1 9.15828 15.7209 9.81982
1 8.37324 14.9125 9.83328
1 9.96141 15.7134 10.6484
1 10.7551 14.9197 10.6484
1 10.7379 15.722 9.85767
1 9.9826 14.9014 9.85036
1 11.5488 15.7134 10.6484
1 12.3425 14.9197 10.6484
1 12.324 15.7055 9.86018
1 11.5517 14.9254 9.85242
1 13.1362 15.7134 10.6484
1 13.9299 14.9197 10.6484
1 13.9331 15.7018 9.85433
1 13.1453 14.8833 9.87681
1 14.7236 15.7134 10.6484
1 15.5173 14.9197 10.6484
1 15.5167 15.6924 9.84852
1 14.7136 14.9195 9.85667
1 16.311 15.7134 10.6484
1 17.1047 14.9197 10.6484
1 17.0977 15.7354 9.86102
1 16.31 14.9478 9.87046
1 17.8984 15.7134 10.6484
1 18.6921 14.9197 10.6484
1 18.7205 15.6996 9.83197
1 17.9089 14.9222 9.87582
1 19.4858 15.7134 10.6484
1 20.2795 14.9197 10.6484
1 20.2554 15.7161 9.85655
1 19.4774 14.9161 9.86787
1 21.0732 15.7134 10.6484
1 21.8669 14.9197 10.6484
1 21.8033 15.7126 9.81753
1 21.0239 14.922 9.85351
1 22.5 14.126 10.6484
1 23.2937 13.3323 10.6484
1 23.3399 14.1382 9.84728
1 22.5836 13.3545 9.8102
1 24.0874 14.126 10.6484
1 24.8811 13.3323 10.6484
1 24.898 14.126 9.86097
1 24.112 13.3511 9.84648
1 25.6748 14.126 10.6484
1 26.4685 13.3323 10.6484
1 26.4908 14.1264 9.84017
1 25.6583 13.3239 9.8479
1 27.2622 14.126 10.6484
1 28.0559 13.3323 10.6484
1 28.0542 14.1139 9.85152
1 27.2744 13.3064 9.85026
1 28.8496 14.126 10.6484
1 29.6433 13.3323 10.6484
1 29.6299 14.139 9.88148
1 28.8511 13.336 9.83633
1 0.437005 14.126 10.6484
1 1.23071 13.3323 10.6484
1 1.23483 14.1269 9.84545
1 0.449935 13.3377 9.87309
1 2.02441 14.126 10.6484
1 2.81811 13.3323 10.6484
1 2.81757 14.131 9.85468
1 2.03196 13.3512 9.85918
1 3.61181 14.126 10.6484
1 4.40551 13.3323 10.6484
1 4.39158 14.1198 9.84641
1 3.61949 13.3683 9.8601
1 5.19921 14.126 10.6484
1 5.99291 13.3323 10.6484
1 6.00705 14.1206 9.85395
1 5.20582 13.337 9.85138
1 6.78661 14.126 10.6484
1 7.58031 13.3323 10.6484
1 7.56822 14.1051 9.84257
1 6.78131 13.345 9.82473
1 8.37401 14.126 10.6484
1 9.16771 13.3323 10.6484
1 9.15765 14.1238 9.84889
1 8.37476 13.3297 9.85363
1 9.96141 14.126 10.6484
1 10.7551 13.3323 10.6484
1 10.7828 14.1138 9.83576
1 9.99627 13.3291 9.85193
1 11.5488 14.126 10.6484
1 12.3425 13.3323 10.6484
1 12.3223 14.1299 9.83815
1 11.5408 13.3168 9.85061
1 13.1362 14.126 10.6484
1 13.9299 13.3323 10.6484
1 13.9456 14.1236 9.85894
1 13.1317 13.3418 9.87485
1 14.7236 14.126 10.6484
1 15.5173 13.3323 10.6484
1 15.5329 14.1229 9.8291
1 14.7459 13.3437 9.83258
1 16.311 14.126 10.6484
1 17.1047 13.3323 10.6484
1 17.0729 14.1368 9.86179
1 16.2994 13.33 9.87717
1 17.8984 14.126 10.6484
1 18.6921 13.3323 10.6484
1 18.6825 14.1335 9.84183
1 17.8772 13.3486 9.86407
1 19.4858 14.126 10.6484
1 20.2795 13.3323 10.6484
1 20.2524 14.1021 9.86317
1 19.4815 13.3222 9.84597
1 21.0732 14.126 10.6484
1 21.8669 13.3323 10.6484
1 21.8083 14.153 9.81502
1 21.0706 13.3382 9.85155
1 22.5 12.5386 10.6484
1 23.2937 11.7449 10.6484
1 23.3059 12.5511 9.84429
1 22.5894 11.7478 9.81777
1 24.0874 12.5386 10.6484
1 24.8811 11.7449 10.6484
1 24.8536 12.5512 9.86876
1 24.0955 11.7678 9.84236
1 25.6748 12.5386 10.6484
1 26.4685 11.7449 10.6484
1 26.4513 12.5406 9.82427
1 25.6641 11.74 9.83501
1 27.2622 12.5386 10.6484
1 28.0559 11.7449 10.6484
1 28.0507 12.5258 9.84438
1 27.2753 11.7593 9.85442
1 28.8496 12.5386 10.6484
1 29.6433 11.7449 10.6484
1 29.6306 12.5463 9.86907
1 28.8345 11.7812 9.87054
1 0.437005 12.5386 10.6484
1 1.23071 11.7449 10.6484
1 1.23657 12.5276 9.86248
1 0.426132 11.757 9.85225
1 2.02441 12.5386 10.6484
1 2.81811 11.7449 10.6484
1 2.84033 12.5352 9.83792
1 2.00506 11.7424 9.85487
1 3.61181 12.5386 10.6484
1 4.40551 11.7449 10.6484
1 4.40115 12.5384 9.84682
1 3.61046 11.7251 9.87569
1 5.19921 12.5386 10.6484
1 5.99291 11.7449 10.6484
1 5.99193 12.5295 9.86576
1 5.18147 11.7455 9.86413
1 6.78661 12.5386 10.6484
1 7.58031 11.7449 10.6484
1 7.59923 12.5332 9.8577
1 6.78707 11.7524 9.84076
1 8.37401 12.5386 10.6484
1 9.16771 11.7449 10.6484
1 9.19333 12.5403 9.84177
1 8.39815 11.7386 9.85823
1 9.96141 12.5386 10.6484
1 10.7551 11.7449 10.6484
1 10.7399 12.5319 9.85918
1 9.96488 11.7482 9.85551
1 11.5488 12.5386 10.6484
1 12.3425 11.7449 10.6484
1 12.3601 12.5236 9.86832
1 11.5535 11.7477 9.86069
1 13.1362 12.5386 10.6484
1 13.9299 11.7449 10.6484
1 13.9257 12.5382 9.83768
1 13.1702 11.7279 9.84563
1 14.7236 12.5386 10.6484
1 15.5173 11.7449 10.6484
1 15.519 12.542 9.86639
1 14.7249 11.7294 9.85255
1 16.311 12.5386 10.6484
1 17.1047 11.7449 10.6484
1 17.1251 12.5312 9.85564
1 16.2902 11.7234 9.87179
1 17.8984 12.5386 10.6484
1 18.6921 11.7449 10.6484
1 18.7007 12.53 9.84463
1 17.9072 11.7536 9.86261
1 19.4858 12.5386 10.6484
1 20.2795 11.7449 10.6484
1 20.2667 12.5386 9.84029
1 19.4806 11.7413 9.84827
1 21.0732 12.5386 10.6484
1 21.8669 11.7449 10.6484
1 21.8085 12.5116 9.82129
1 21.0485 11.7322 9.85533
1 22.5 10.9512 10.6484
1 23.2937 10.1575 10.6484
1 23.3215 10.9511 9.82345
1 22.5871 10.1772 9.81212
1 24.0874 10.9512 10.6484
1 24.8811 10.1575 10.6484
1 24.8842 10.9527 9.86971
1 24.0984 10.1627 9.86593
1 25.6748 10.9512 10.6484
1 26.4685 10.1575 10.6484
1 26.4947 10.9689 9.88946
1 25.6839 10.1687 9.85091
1 27.2622 10.9512 10.6484
1 28.0559 10.1575 10.6484
1 28.0498 10.9563 9.8447
1 27.2652 10.1626 9.83773
1 28.8496 10.9512 10.6484
1 29.6433 10.1575 10.6484
1 29.6372 10.9511 9.87688
1 28.8321 10.1409 9.86591
1 0.437005 10.9512 10.6484
1 1.23071 10.1575 10.6484
1 1.21771 10.9184 9.8632
1 0.405791 10.1611 9.85833
1 2.02441 10.9512 10.6484
1 2.81811 10.1575 10.6484
1 2.79997 10.9285 9.86587
1 2.01846 10.1407 9.84077
1 3.61181 10.9512 10.6484
1 4.40551 10.1575 10.6484
1 4.40866 10.9161 9.85375
1 3.57954 10.1454 9.86128
1 5.19921 10.9512 10.6484
1 5.99291 10.1575 10.6484
1 6.00678 10.9492 9.86675
1 5.21204 10.1665 9.8752
1 6.78661 10.9512 10.6484
1 7.58031 10.1575 10.6484
1 7.58602 10.9339 9.87505
1 6.7704 10.1484 9.85305
1 8.37401 10.9512 10.6484
1 9.16771 10.1575 10.6484
1 9.15155 10.9413 9.84393
1 8.36808 10.1464 9.86626
1 9.96141 10.9512 10.6484
1 10.7551 10.1575 10.6484
1 10.7608 10.9599 9.86801
1 9.96418 10.1689 9.84251
1 11.5488 10.9512 10.6484
1 12.3425 10.1575 10.6484
1 12.3327 10.9395 9.84125
1 11.5408 10.1251 9.82842
1 13.1362 10.9512 10.6484
1 13.9299 10.1575 10.6484
1 13.9352 10.9407 9.86672
1 13.1342 10.1691 9.84404
1 14.7236 10.9512 10.6484
1 15.5173 10.1575 10.6484
1 15.4872 10.9405 9.84291
1 14.6989 10.1376 9.8389
1 16.311 10.9512 10.6484
1 17.1047 10.1575 10.6484
1 17.118 10.9644 9.87686
1 16.3061 10.147 9.83702
1 17.8984 10.9512 10.6484
1 18.6921 10.1575 10.6484
1 18.6718 10.9538 9.84997
1 17.9117 10.1609 9.85651
1 19.4858 10.9512 10.6484
1 20.2795 10.1575 10.6484
1 20.2601 10.9553 9.85926
1 19.4629 10.1748 9.84854
1 21.0732 10.9512 10.6484
1 21.8669 10.1575 10.6484
1 21.8196 10.9568 9.82311
1 21.0527 10.1655 9.83848
1 22.5 9.36379 10.6484
1 23.2937 8.57009 10.6484
1 23.3294 9.37591 9.84833
1 22.5748 8.58084 9.84043
1 24.0874 9.36379 10.6484
1 24.8811 8.57009 10.6484
1 24.8755 9.37132 9.84517
1 24.1031 8.57244 9.85068
1 25.6748 9.36379 10.6484
1 26.4685 8.57009 10.6484
1 26.4533 9.37362 9.83499
1 25.6708 8.55144 9.8503
1 27.2622 9.36379 10.6484
1 28.0559 8.57009 10.6484
1 28.0581 9.37521 9.85786
1 27.255 8.59331 9.87441
1 28.8496 9.36379 10.6484
1 29.6433 8.57009 10.6484
1 29.6375 9.3399 9.8742
1 28.8469 8.55882 9.87348
1 0.437005 9.36379 10.6484
1 1.23071 8.57009 10.6484
1 1.22536 9.37061 9.84277
1 0.43905 8.54919 9.84181
1 2.02441 9.36379 10.6484
1 2.81811 8.57009 10.6484
1 2.823 9.35108 9.81969
1 2.01093 8.58232 9.86633
1 3.61181 9.36379 10.6484
1 4.40551 8.57009 10.6484
1 4.39181 9.37663 9.85791
1 3.61259 8.56817 9.8387
1 5.19921 9.36379 10.6484
1 5.99291 8.57009 10.6484
1 5.98744 9.37346 9.87184
1 5.20046 8.56495 9.86763
1 6.78661 9.36379 10.6484
1 7.58031 8.57009 10.6484
1 7.58354 9.35263 9.85989
1 6.79822 8.59645 9.8515
1 8.37401 9.36379 10.6484
1 9.16771 8.57009 10.6484
1 9.15838 9.3525 9.86059
1 8.36892 8.55219 9.85691
1 9.96141 9.36379 10.6484
1 10.7551 8.57009 10.6484
1 10.756 9.34486 9.85479
1 9.95105 8.57178 9.83924
1 11.5488 9.36379 10.6484
1 12.3425 8.57009 10.6484
1 12.3382 9.35306 9.8383
1 11.5551 8.59687 9.85023
1 13.1362 9.36379 10.6484
1 13.9299 8.57009 10.6484
1 13.9334 9.36173 9.87255
1 13.1512 8.57881 9.87356
1 14.7236 9.36379 10.6484
1 15.5173 8.57009 10.6484
1 15.5203 9.32402 9.84234
1 14.7167 8.56678 9.8446
1 16.311 9.36379 10.6484
1 17.1047 8.57009 10.6484
1 17.0981 9.36919 9.86455
1 16.3053 8.56634 9.88163
1 17.8984 9.36379 10.6484
1 18.6921 8.57009 10.6484
1 18.7327 9.36025 9.85319
1 17.9144 8.57559 9.83946
1 19.4858 9.36379 10.6484
1 20.2795 8.57009 10.6484
1 20.2653 9.37493 9.85316
1 19.4848 8.54462 9.86623
1 21.0732 9.36379 10.6484
1 21.8669 8.57009 10.6484
1 21.8023 9.36641 9.81797
1 21.0511 8.59637 9.85521
1 22.5 7.77639 10.6484
1 23.2937 6.98268 10.6484
1 23.3214 7.79238 9.84443
1 22.5737 6.97888 9.81615
1 24.0874 7.77639 10.6484
1 24.8811 6.98268 10.6484
1 24.8989 7.78362 9.85023
1 24.1311 6.98407 9.85959
1 25.6748 7.77639 10.6484
1 26.4685 6.98268 10.6484
1 26.4762 7.79543 9.86594
1 25.6949 6.97399 9.85866
1 27.2622 7.77639 10.6484
1 28.0559 6.98268 10.6484
1 28.0477 7.77762 9.84689
1 27.2492 6.98959 9.84924
1 28.8496 7.77639 10.6484
1 29.6433 6.98268 10.6484
1 29.6315 7.77513 9.87414
1 28.8501 6.98486 9.83889
1 0.437005 7.77639 10.6484
1 1.23071 6.98268 10.6484
1 1.22719 7.76422 9.84505
1 0.44595 6.99673 9.87213
1 2.02441 7.77639 10.6484
1 2.81811 6.98268 10.6484
1 2.8341 7.77233 9.86031
1 2.02883 7.01292 9.84884
1 3.61181 7.77639 10.6484
1 4.40551 6.98268 10.6484
1 4.41349 7.7736 9.83772
1 3.60812 6.99401 9.84324
1 5.19921 7.77639 10.6484
1 5.99291 6.98268 10.6484
1 5.99779 7.75324 9.857
1 5.20831 6.98438 9.83249
1 6.78661 7.77639 10.6484
1 7.58031 6.98268 10.6484
1 7.58112 7.77295 9.84379
1 6.77087 6.9777 9.84297
1 8.37401 7.77639 10.6484
1 9.16771 6.98268 10.6484
1 9.16266 7.78082 9.85045
1 8.38246 6.99393 9.84611
1 9.96141 7.77639 10.6484
1 10.7551 6.98268 10.6484
1 10.7584 7.79475 9.8698
1 9.97476 6.98216 9.86327
1 11.5488 7.77639 10.6484
1 12.3425 6.98268 10.6484
1 12.3302 7.77675 9.87665
1 11.5557 6.98697 9.83402
1 13.1362 7.77639 10.6484
1 13.9299 6.98268 10.6484
1 13.9236 7.781 9.85369
1 13.1002 6.95897 9.83153
1 14.7236 7.77639 10.6484
1 15.5173 6.98268 10.6484
1 15.518 7.76991 9.82995
1 14.7137 6.97636 9.85774
1 16.311 7.77639 10.6484
1 17.1047 6.98268 10.6484
1 17.0988 7.78053 9.83975
1 16.3032 6.99962 9.87839
1 17.8984 7.77639 10.6484
1 18.6921 6.98268 10.6484
1 18.708 7.77621 9.84107
1 17.8967 6.98009 9.88201
1 19.4858 7.77639 10.6484
1 20.2795 6.98268 10.6484
1 20.2821 7.79415 9.86334
1 19.4833 7.00133 9.86257
1 21.0732 7.77639 10.6484
1 21.8669 6.98268 10.6484
1 21.807 7.76715 9.83485
1 21.0363 7.0018 9.85621
1 22.5 6.18898 10.6484
1 23.2937 5.39528 10.6484
1 23.3515 6.19387 9.84418
1 22.5723 5.41053 9.825
1 24.0874 6.18898 10.6484
1 24.8811 5.39528 10.6484
1 24.8695 6.18769 9.83544
1 24.1034 5.37813 9.8648
1 25.6748 6.18898 10.6484
1 26.4685 5.39528 10.6484
1 26.4623 6.20853 9.84641
1 25.6905 5.39902 9.83585
1 27.2622 6.18898 10.6484
1 28.0559 5.39528 10.6484
1 28.0467 6.2036 9.87412
1 27.2515 5.39943 9.87667
1 28.8496 6.18898 10.6484
1 29.6433 5.39528 10.6484
1 29.6328 6.1866 9.8536