LAMMPS (5 Jun 2019)
OMP_NUM_THREADS environment is not set. Defaulting to 1 thread. (src/comm.cpp:88)
  using 1 OpenMP thread(s) per MPI task
#--- Brush Variables---#
variable      f      equal  1                  # System Size Scaling Factor
variable      M      equal  $(v_f * 60)        # The number of polymer chains on each brush
variable      M      equal  60        
variable      N      string 30                 # The number of beads per chain
variable      xhi    equal  $(sqrt(v_f) * 30)  # The width of the polymer Brush
variable      xhi    equal  30  
variable      yhi    equal  $(sqrt(v_f) * 30)   # The length of the polymer Brush
variable      yhi    equal  30   
variable      wthick equal  3                  # The thickness of the walls wthick=1,2,3,4 gives 2,3,4,6 layers respectively

#--- Simulation Variables ---#
variable       Temp      index 1               # The Temperature of the Thermostats
variable       Tstep     equal 0.005           # Timestep in Tau (default = 0.005)
variable       Nequil    equal 300000          # Number of timesteps to equilibrate
variable       Ncomp     equal 700000          # Number of timesteps to compress - until no more oscillation of D
variable       Nshear    equal 4000000         # Number of timesteps to shear
variable       Nthermo   equal 1000            # Number of timesteps between thermo data prints
variable       Ndump_e   equal 10000
variable       Ndump_c   equal 10000           # Number of timesteps per dump file (compression)
variable       Ndump_s   equal 10000           # Number of timesteps per dump file (shear)
variable       Vwalli    index 0.01 0.5 1 1.5 2             # Relative wall Velocities
variable       Pcomp     index 1 # 0.5 2 0.05 4 8                               # Compressive Pressures applied to top wall
variable       Vscale    equal 1e-6

include        MDPBB.in
# This is an input script that creates a mono disperse polymer brush bilayer
# A coarse grained bead-spring model is used for the polymers which are end
# grafted to the surfaces of 2 opposing FCC walls at random sites.

#--- Initialization ---#

dimension     3
boundary      p p f
units         lj
atom_style    bond


#--- Moved to main.in ---#
#variable      M      equal  50                # The number of polymer chains on each brush
#variable      N      string 80                # The number of beads per chain
#variable      xhi    equal  15                # The width of the polymer Brush
#variable      yhi    equal  20                # The length of the polymer Brush
#variable      wthick equal  3                 # The thickness of the walls wthick=1,2,3,4 gives 2,3,4,6 layers respectively

variable      zhi    equal  $(1.1 * 2 * v_N + (2 * v_wthick))  # The initial height of the simulation box the value is such that no overlaps occur
variable      zhi    equal  72  
variable      z0     equal  $((v_zhi)/4 - (v_N)/30)          # This is the location at which to place the CoM of the molecule
variable      z0     equal  17          

print "The number of grafted chains = $(v_M)"
The number of grafted chains = 60
print "The number of beads per chain = $(v_N)"
The number of beads per chain = 30

variable      check  equal count(all)         # The number of atoms in the system
variable      ntwall equal count(twall)       # The number of atoms in the top wall
variable      nbwall equal count(bwall)       # The number of atoms in the bottom wall
variable      s equal 234897  #45335              # Seed for the RNG

print "zhi = ${zhi}"
zhi = 72

#--- Create the simulation box ---#

region        sbox block 0 ${xhi} 0 ${yhi} 0 ${zhi}
region        sbox block 0 30 0 ${yhi} 0 ${zhi}
region        sbox block 0 30 0 30 0 ${zhi}
region        sbox block 0 30 0 30 0 72
create_box    4 sbox bond/types 3 extra/bond/per/atom 12 extra/special/per/atom 2
Created orthogonal box = (0 0 0) to (30 30 72)
  1 by 1 by 1 MPI processor grid

mass          1 2.0                   # Wall atoms that are not grafted
mass          2 1.0                   # Grafted bead
mass          3 1.0                   # The rest of the beads on the chain
mass          4 2.0                   # Wall atoms that the chains are grafted to

bond_style    hybrid fene harmonic    # Finitely extensible linearly elastic bond between neighbouring beads
#bond_coeff    1 fene 30.0 1.5 0.0 0.0      # Values obtained from literature [Grest, Galushcko]
bond_coeff    1 fene 30.0 30.0 0.0 0.0
bond_coeff    2 fene 30.0 30.0 0.0 0.0       # This is the grafting bond between the polymer and the wall atom
special_bonds fene                    #
  0 = max # of 1-2 neighbors
  5 = max # of special neighbors
  special bonds CPU = 0.0003198 secs
pair_style	  lj/cut 1.122462         # LJ potential with rc=2^1/6
#pair_coeff	  * * 1.0 1.0             # LJ potential acts between all atoms
pair_coeff    1 1 0.0 0.0
pair_coeff    1 2 1.0 1.0
pair_coeff    1 3 1.0 1.0
pair_coeff    2 2 1.0 1.0
pair_coeff    2 3 1.0 1.0
pair_coeff    2 4 1.0 1.0
pair_coeff    3 3 1.0 1.0
pair_coeff    3 4 1.0 1.0
pair_coeff    4 4 0.0 0.0
neighbor      10 bin                  #
neigh_modify  one 4000

#--- Create and read the molecule file ---#
python        BSMolf input 1 $N format i file BSMolf.py
python        BSMolf input 1 30 format i file BSMolf.py
python        BSMolf invoke    # Call the python function with number of beads to write the mol file
molecule      bs     bsmol.txt     # Read the Mol file to define the polymer chain
Read molecule bs:
  30 atoms with max type 2
  29 bonds with max type 1
  0 angles with max type 0
  0 dihedrals with max type 0
  0 impropers with max type 0

#--- Define the FCC wall region ---#
region        wall  block 0 ${xhi} 0 ${yhi} 0 ${wthick}
region        wall  block 0 30 0 ${yhi} 0 ${wthick}
region        wall  block 0 30 0 30 0 ${wthick}
region        wall  block 0 30 0 30 0 3
lattice       fcc 1
Lattice spacing in x,y,z = 1.5874 1.5874 1.5874

#--- Create the Top Brush  (At the bottom then rotate 180 degrees to top) ---#

create_atoms  1 region wall
Created 2888 atoms
  create_atoms CPU = 0.0018248 secs
group         twall  region wall
2888 atoms in group twall
#group         tsurf  region wsurf

# A loop to insert the Chains into the sim box
variable      i loop $M                                   # Index to insert N total number of chains
variable      i loop 60                                   
label         loop                                        # Start of loop
variable      randni equal round(random(1,${ntwall},$s))  # Pick a random "top" wall atom
variable      randni equal round(random(1,2888,$s))  
variable      randni equal round(random(1,2888,234897))  
variable      randatomi equal ${randni}                   # This is to obtain an integer number for atom-id
variable      randatomi equal 1814                   
variable      randzi equal z[${randatomi}]                # Determine the z coordinate of the chosen atom
variable      randzi equal z[1814]                
# if the chosen atom is not a surface atom then restart the loop
if            "${randzi} < $(v_wthick - 0.7)" then "jump MDPBB.in loop"
jump MDPBB.in loop
variable      randni equal round(random(1,${ntwall},$s))  # Pick a random "top" wall atom
variable      randni equal round(random(1,2888,$s))  
variable      randni equal round(random(1,2888,234897))  
variable      randatomi equal ${randni}                   # This is to obtain an integer number for atom-id
variable      randatomi equal 455                   
variable      randzi equal z[${randatomi}]                # Determine the z coordinate of the chosen atom
variable      randzi equal z[455]                
# if the chosen atom is not a surface atom then restart the loop
if            "${randzi} < $(v_wthick - 0.7)" then "jump MDPBB.in loop"
jump MDPBB.in loop
variable      randni equal round(random(1,${ntwall},$s))  # Pick a random "top" wall atom
variable      randni equal round(random(1,2888,$s))  
variable      randni equal round(random(1,2888,234897))  
variable      randatomi equal ${randni}                   # This is to obtain an integer number for atom-id
variable      randatomi equal 2182                   
variable      randzi equal z[${randatomi}]                # Determine the z coordinate of the chosen atom
variable      randzi equal z[2182]                
# if the chosen atom is not a surface atom then restart the loop
if            "${randzi} < $(v_wthick - 0.7)" then "jump MDPBB.in loop"
jump MDPBB.in loop
variable      randni equal round(random(1,${ntwall},$s))  # Pick a random "top" wall atom
variable      randni equal round(random(1,2888,$s))  
variable      randni equal round(random(1,2888,234897))  
variable      randatomi equal ${randni}                   # This is to obtain an integer number for atom-id
variable      randatomi equal 2201                   
variable      randzi equal z[${randatomi}]                # Determine the z coordinate of the chosen atom
variable      randzi equal z[2201]                
# if the chosen atom is not a surface atom then restart the loop
if            "${randzi} < $(v_wthick - 0.7)" then "jump MDPBB.in loop"
jump MDPBB.in loop
variable      randni equal round(random(1,${ntwall},$s))  # Pick a random "top" wall atom
variable      randni equal round(random(1,2888,$s))  
variable      randni equal round(random(1,2888,234897))  
variable      randatomi equal ${randni}                   # This is to obtain an integer number for atom-id
variable      randatomi equal 2098                   
variable      randzi equal z[${randatomi}]                # Determine the z coordinate of the chosen atom
variable      randzi equal z[2098]                
# if the chosen atom is not a surface atom then restart the loop
if            "${randzi} < $(v_wthick - 0.7)" then "jump MDPBB.in loop"
jump MDPBB.in loop
variable      randni equal round(random(1,${ntwall},$s))  # Pick a random "top" wall atom
variable      randni equal round(random(1,2888,$s))  
variable      randni equal round(random(1,2888,234897))  
variable      randatomi equal ${randni}                   # This is to obtain an integer number for atom-id
variable      randatomi equal 2845                   
variable      randzi equal z[${randatomi}]                # Determine the z coordinate of the chosen atom
variable      randzi equal z[2845]                
# if the chosen atom is not a surface atom then restart the loop
if            "${randzi} < $(v_wthick - 0.7)" then "jump MDPBB.in loop"
jump MDPBB.in loop
variable      randni equal round(random(1,${ntwall},$s))  # Pick a random "top" wall atom
variable      randni equal round(random(1,2888,$s))  
variable      randni equal round(random(1,2888,234897))  
variable      randatomi equal ${randni}                   # This is to obtain an integer number for atom-id
variable      randatomi equal 1373                   
variable      randzi equal z[${randatomi}]                # Determine the z coordinate of the chosen atom
variable      randzi equal z[1373]                
# if the chosen atom is not a surface atom then restart the loop
if            "${randzi} < $(v_wthick - 0.7)" then "jump MDPBB.in loop"
jump MDPBB.in loop
variable      randni equal round(random(1,${ntwall},$s))  # Pick a random "top" wall atom
variable      randni equal round(random(1,2888,$s))  
variable      randni equal round(random(1,2888,234897))  
variable      randatomi equal ${randni}                   # This is to obtain an integer number for atom-id
variable      randatomi equal 968                   
variable      randzi equal z[${randatomi}]                # Determine the z coordinate of the chosen atom
variable      randzi equal z[968]                
# if the chosen atom is not a surface atom then restart the loop
if            "${randzi} < $(v_wthick - 0.7)" then "jump MDPBB.in loop"
jump MDPBB.in loop
variable      randni equal round(random(1,${ntwall},$s))  # Pick a random "top" wall atom
variable      randni equal round(random(1,2888,$s))  
variable      randni equal round(random(1,2888,234897))  
variable      randatomi equal ${randni}                   # This is to obtain an integer number for atom-id
variable      randatomi equal 1250                   
variable      randzi equal z[${randatomi}]                # Determine the z coordinate of the chosen atom
variable      randzi equal z[1250]                
# if the chosen atom is not a surface atom then restart the loop
if            "${randzi} < $(v_wthick - 0.7)" then "jump MDPBB.in loop"
jump MDPBB.in loop
variable      randni equal round(random(1,${ntwall},$s))  # Pick a random "top" wall atom
variable      randni equal round(random(1,2888,$s))  
variable      randni equal round(random(1,2888,234897))  
variable      randatomi equal ${randni}                   # This is to obtain an integer number for atom-id
variable      randatomi equal 2090                   
variable      randzi equal z[${randatomi}]                # Determine the z coordinate of the chosen atom
variable      randzi equal z[2090]                
# if the chosen atom is not a surface atom then restart the loop
if            "${randzi} < $(v_wthick - 0.7)" then "jump MDPBB.in loop"
jump MDPBB.in loop
variable      randni equal round(random(1,${ntwall},$s))  # Pick a random "top" wall atom
variable      randni equal round(random(1,2888,$s))  
variable      randni equal round(random(1,2888,234897))  
variable      randatomi equal ${randni}                   # This is to obtain an integer number for atom-id
variable      randatomi equal 2586                   
variable      randzi equal z[${randatomi}]                # Determine the z coordinate of the chosen atom
variable      randzi equal z[2586]                
# if the chosen atom is not a surface atom then restart the loop
if            "${randzi} < $(v_wthick - 0.7)" then "jump MDPBB.in loop"
jump MDPBB.in loop
variable      randni equal round(random(1,${ntwall},$s))  # Pick a random "top" wall atom
variable      randni equal round(random(1,2888,$s))  
variable      randni equal round(random(1,2888,234897))  
variable      randatomi equal ${randni}                   # This is to obtain an integer number for atom-id
variable      randatomi equal 21                   
variable      randzi equal z[${randatomi}]                # Determine the z coordinate of the chosen atom
variable      randzi equal z[21]                
# if the chosen atom is not a surface atom then restart the loop
if            "${randzi} < $(v_wthick - 0.7)" then "jump MDPBB.in loop"
jump MDPBB.in loop
variable      randni equal round(random(1,${ntwall},$s))  # Pick a random "top" wall atom
variable      randni equal round(random(1,2888,$s))  
variable      randni equal round(random(1,2888,234897))  
variable      randatomi equal ${randni}                   # This is to obtain an integer number for atom-id
variable      randatomi equal 550                   
variable      randzi equal z[${randatomi}]                # Determine the z coordinate of the chosen atom
variable      randzi equal z[550]                
# if the chosen atom is not a surface atom then restart the loop
if            "${randzi} < $(v_wthick - 0.7)" then "jump MDPBB.in loop"
jump MDPBB.in loop
variable      randni equal round(random(1,${ntwall},$s))  # Pick a random "top" wall atom
variable      randni equal round(random(1,2888,$s))  
variable      randni equal round(random(1,2888,234897))  
variable      randatomi equal ${randni}                   # This is to obtain an integer number for atom-id
variable      randatomi equal 944                   
variable      randzi equal z[${randatomi}]                # Determine the z coordinate of the chosen atom
variable      randzi equal z[944]                
# if the chosen atom is not a surface atom then restart the loop
if            "${randzi} < $(v_wthick - 0.7)" then "jump MDPBB.in loop"
jump MDPBB.in loop
variable      randni equal round(random(1,${ntwall},$s))  # Pick a random "top" wall atom
variable      randni equal round(random(1,2888,$s))  
variable      randni equal round(random(1,2888,234897))  
variable      randatomi equal ${randni}                   # This is to obtain an integer number for atom-id
variable      randatomi equal 2340                   
variable      randzi equal z[${randatomi}]                # Determine the z coordinate of the chosen atom
variable      randzi equal z[2340]                
# if the chosen atom is not a surface atom then restart the loop
if            "${randzi} < $(v_wthick - 0.7)" then "jump MDPBB.in loop"
set           atom ${randatomi} type 4                    # Set this grafted wall atom as a new type
set           atom 2340 type 4                    
  1 settings made for type
group         twg id ${randatomi}                         # Add this atom to a top-wall-grafted group
group         twg id 2340                         
1 atoms in group twg
variable      twgcount equal count(twg)
print         "twg contains ${twgcount}"
twg contains 1
print         "i = $(v_i)"                                # The index i should always be equal to the number of atom in twg
i = 1
variable      x0 equal x[${randatomi}]                    # Determine its x-coord
variable      x0 equal x[2340]                    
variable      y0 equal y[${randatomi}]                    # Determine its y-coord
variable      y0 equal y[2340]                    
variable      check0 equal ${check}                       # Count the number of atoms in the simulation
variable      check0 equal 2888                       
variable      b equal ${check}+1                          # The grafted bead id will be one higher after being inserted
variable      b equal 2888+1                          
if            "${twgcount} != $(v_i)" then "jump MDPBB.in loop"
# Otherwise insert the chain directly above the chosen wall atom pointing perpendicular to the wall
create_atoms  1 single ${x0} ${y0} ${z0} mol bs 24987 units box remap yes rotate 0 0 0 1
create_atoms  1 single 22.2236147275548 ${y0} ${z0} mol bs 24987 units box remap yes rotate 0 0 0 1
create_atoms  1 single 22.2236147275548 18.2551120976343 ${z0} mol bs 24987 units box remap yes rotate 0 0 0 1
create_atoms  1 single 22.2236147275548 18.2551120976343 17 mol bs 24987 units box remap yes rotate 0 0 0 1
Created 30 atoms
  create_atoms CPU = 0.0001477 secs
variable      check1 equal ${check}               # Count the new total number of atoms
variable      check1 equal 2918               
# Check that the molecule has indeed been inserted (This check is no longer an issue).
if            "${check1} != ${check0}" then "create_bonds  single/bond 2 ${randatomi} $b" "next i"
create_bonds  single/bond 2 ${randatomi} $b
create_bonds  single/bond 2 2340 $b
create_bonds  single/bond 2 2340 2889
  2 = max # of 1-2 neighbors
  5 = max # of special neighbors
  special bonds CPU = 0.0050951 secs
next i
jump MDPBB.in loop    # End of the loop
variable      randni equal round(random(1,${ntwall},$s))  # Pick a random "top" wall atom
variable      randni equal round(random(1,2888,$s))  
variable      randni equal round(random(1,2888,234897))  
variable      randatomi equal ${randni}                   # This is to obtain an integer number for atom-id
variable      randatomi equal 2049                   
variable      randzi equal z[${randatomi}]                # Determine the z coordinate of the chosen atom
variable      randzi equal z[2049]                
# if the chosen atom is not a surface atom then restart the loop
if            "${randzi} < $(v_wthick - 0.7)" then "jump MDPBB.in loop"
jump MDPBB.in loop
variable      randni equal round(random(1,${ntwall},$s))  # Pick a random "top" wall atom
variable      randni equal round(random(1,2888,$s))  
variable      randni equal round(random(1,2888,234897))  
variable      randatomi equal ${randni}                   # This is to obtain an integer number for atom-id
variable      randatomi equal 1989                   
variable      randzi equal z[${randatomi}]                # Determine the z coordinate of the chosen atom
variable      randzi equal z[1989]                
# if the chosen atom is not a surface atom then restart the loop
if            "${randzi} < $(v_wthick - 0.7)" then "jump MDPBB.in loop"
jump MDPBB.in loop
variable      randni equal round(random(1,${ntwall},$s))  # Pick a random "top" wall atom
variable      randni equal round(random(1,2888,$s))  
variable      randni equal round(random(1,2888,234897))  
variable      randatomi equal ${randni}                   # This is to obtain an integer number for atom-id
variable      randatomi equal 1613                   
variable      randzi equal z[${randatomi}]                # Determine the z coordinate of the chosen atom
variable      randzi equal z[1613]                
# if the chosen atom is not a surface atom then restart the loop
if            "${randzi} < $(v_wthick - 0.7)" then "jump MDPBB.in loop"
jump MDPBB.in loop
variable      randni equal round(random(1,${ntwall},$s))  # Pick a random "top" wall atom
variable      randni equal round(random(1,2888,$s))  
variable      randni equal round(random(1,2888,234897))  
variable      randatomi equal ${randni}                   # This is to obtain an integer number for atom-id
variable      randatomi equal 2250                   
variable      randzi equal z[${randatomi}]                # Determine the z coordinate of the chosen atom
variable      randzi equal z[2250]                
# if the chosen atom is not a surface atom then restart the loop
if            "${randzi} < $(v_wthick - 0.7)" then "jump MDPBB.in loop"
jump MDPBB.in loop
variable      randni equal round(random(1,${ntwall},$s))  # Pick a random "top" wall atom
variable      randni equal round(random(1,2888,$s))  
variable      randni equal round(random(1,2888,234897))  
variable      randatomi equal ${randni}                   # This is to obtain an integer number for atom-id
variable      randatomi equal 1777                   
variable      randzi equal z[${randatomi}]                # Determine the z coordinate of the chosen atom
variable      randzi equal z[1777]                
# if the chosen atom is not a surface atom then restart the loop
if            "${randzi} < $(v_wthick - 0.7)" then "jump MDPBB.in loop"
jump MDPBB.in loop
variable      randni equal round(random(1,${ntwall},$s))  # Pick a random "top" wall atom
variable      randni equal round(random(1,2888,$s))  
variable      randni equal round(random(1,2888,234897))  
variable      randatomi equal ${randni}                   # This is to obtain an integer number for atom-id
variable      randatomi equal 1790                   
variable      randzi equal z[${randatomi}]                # Determine the z coordinate of the chosen atom
variable      randzi equal z[1790]                
# if the chosen atom is not a surface atom then restart the loop
if            "${randzi} < $(v_wthick - 0.7)" then "jump MDPBB.in loop"
jump MDPBB.in loop
variable      randni equal round(random(1,${ntwall},$s))  # Pick a random "top" wall atom
variable      randni equal round(random(1,2888,$s))  
variable      randni equal round(random(1,2888,234897))  
variable      randatomi equal ${randni}                   # This is to obtain an integer number for atom-id
variable      randatomi equal 346                   
variable      randzi equal z[${randatomi}]                # Determine the z coordinate of the chosen atom
variable      randzi equal z[346]                
# if the chosen atom is not a surface atom then restart the loop
if            "${randzi} < $(v_wthick - 0.7)" then "jump MDPBB.in loop"
jump MDPBB.in loop
variable      randni equal round(random(1,${ntwall},$s))  # Pick a random "top" wall atom
variable      randni equal round(random(1,2888,$s))  
variable      randni equal round(random(1,2888,234897))  
variable      randatomi equal ${randni}                   # This is to obtain an integer number for atom-id
variable      randatomi equal 2515                   
variable      randzi equal z[${randatomi}]                # Determine the z coordinate of the chosen atom
variable      randzi equal z[2515]                
# if the chosen atom is not a surface atom then restart the loop
if            "${randzi} < $(v_wthick - 0.7)" then "jump MDPBB.in loop"
set           atom ${randatomi} type 4                    # Set this grafted wall atom as a new type
set           atom 2515 type 4                    
  1 settings made for type
group         twg id ${randatomi}                         # Add this atom to a top-wall-grafted group
group         twg id 2515                         
2 atoms in group twg
variable      twgcount equal count(twg)
print         "twg contains ${twgcount}"
twg contains 2
print         "i = $(v_i)"                                # The index i should always be equal to the number of atom in twg
i = 2
variable      x0 equal x[${randatomi}]                    # Determine its x-coord
variable      x0 equal x[2515]                    
variable      y0 equal y[${randatomi}]                    # Determine its y-coord
variable      y0 equal y[2515]                    
variable      check0 equal ${check}                       # Count the number of atoms in the simulation
variable      check0 equal 2918                       
variable      b equal ${check}+1                          # The grafted bead id will be one higher after being inserted
variable      b equal 2918+1                          
if            "${twgcount} != $(v_i)" then "jump MDPBB.in loop"
# Otherwise insert the chain directly above the chosen wall atom pointing perpendicular to the wall
create_atoms  1 single ${x0} ${y0} ${z0} mol bs 24987 units box remap yes rotate 0 0 0 1
create_atoms  1 single 2.3811015779523 ${y0} ${z0} mol bs 24987 units box remap yes rotate 0 0 0 1
create_atoms  1 single 2.3811015779523 22.2236147275548 ${z0} mol bs 24987 units box remap yes rotate 0 0 0 1
create_atoms  1 single 2.3811015779523 22.2236147275548 17 mol bs 24987 units box remap yes rotate 0 0 0 1
Created 30 atoms
  create_atoms CPU = 0.0001406 secs
variable      check1 equal ${check}               # Count the new total number of atoms
variable      check1 equal 2948               
# Check that the molecule has indeed been inserted (This check is no longer an issue).
if            "${check1} != ${check0}" then "create_bonds  single/bond 2 ${randatomi} $b" "next i"
create_bonds  single/bond 2 ${randatomi} $b
create_bonds  single/bond 2 2515 $b
create_bonds  single/bond 2 2515 2919
  2 = max # of 1-2 neighbors
  5 = max # of special neighbors
  special bonds CPU = 0.0051926 secs
next i
jump MDPBB.in loop    # End of the loop
variable      randni equal round(random(1,${ntwall},$s))  # Pick a random "top" wall atom
variable      randni equal round(random(1,2888,$s))  
variable      randni equal round(random(1,2888,234897))  
variable      randatomi equal ${randni}                   # This is to obtain an integer number for atom-id
variable      randatomi equal 1738                   
variable      randzi equal z[${randatomi}]                # Determine the z coordinate of the chosen atom
variable      randzi equal z[1738]                
# if the chosen atom is not a surface atom then restart the loop
if            "${randzi} < $(v_wthick - 0.7)" then "jump MDPBB.in loop"
jump MDPBB.in loop
variable      randni equal round(random(1,${ntwall},$s))  # Pick a random "top" wall atom
variable      randni equal round(random(1,2888,$s))  
variable      randni equal round(random(1,2888,234897))  
variable      randatomi equal ${randni}                   # This is to obtain an integer number for atom-id
variable      randatomi equal 2654                   
variable      randzi equal z[${randatomi}]                # Determine the z coordinate of the chosen atom
variable      randzi equal z[2654]                
# if the chosen atom is not a surface atom then restart the loop
if            "${randzi} < $(v_wthick - 0.7)" then "jump MDPBB.in loop"
jump MDPBB.in loop
variable      randni equal round(random(1,${ntwall},$s))  # Pick a random "top" wall atom
variable      randni equal round(random(1,2888,$s))  
variable      randni equal round(random(1,2888,234897))  
variable      randatomi equal ${randni}                   # This is to obtain an integer number for atom-id
variable      randatomi equal 2013                   
variable      randzi equal z[${randatomi}]                # Determine the z coordinate of the chosen atom
variable      randzi equal z[2013]                
# if the chosen atom is not a surface atom then restart the loop
if            "${randzi} < $(v_wthick - 0.7)" then "jump MDPBB.in loop"
jump MDPBB.in loop
variable      randni equal round(random(1,${ntwall},$s))  # Pick a random "top" wall atom
variable      randni equal round(random(1,2888,$s))  
variable      randni equal round(random(1,2888,234897))  
variable      randatomi equal ${randni}                   # This is to obtain an integer number for atom-id
variable      randatomi equal 2593                   
variable      randzi equal z[${randatomi}]                # Determine the z coordinate of the chosen atom
variable      randzi equal z[2593]                
# if the chosen atom is not a surface atom then restart the loop
if            "${randzi} < $(v_wthick - 0.7)" then "jump MDPBB.in loop"
jump MDPBB.in loop
variable      randni equal round(random(1,${ntwall},$s))  # Pick a random "top" wall atom
variable      randni equal round(random(1,2888,$s))  
variable      randni equal round(random(1,2888,234897))  
variable      randatomi equal ${randni}                   # This is to obtain an integer number for atom-id
variable      randatomi equal 1699                   
variable      randzi equal z[${randatomi}]                # Determine the z coordinate of the chosen atom
variable      randzi equal z[1699]                
# if the chosen atom is not a surface atom then restart the loop
if            "${randzi} < $(v_wthick - 0.7)" then "jump MDPBB.in loop"
set           atom ${randatomi} type 4                    # Set this grafted wall atom as a new type
set           atom 1699 type 4                    
  1 settings made for type
group         twg id ${randatomi}                         # Add this atom to a top-wall-grafted group
group         twg id 1699                         
3 atoms in group twg
variable      twgcount equal count(twg)
print         "twg contains ${twgcount}"
twg contains 3
print         "i = $(v_i)"                                # The index i should always be equal to the number of atom in twg
i = 3
variable      x0 equal x[${randatomi}]                    # Determine its x-coord
variable      x0 equal x[1699]                    
variable      y0 equal y[${randatomi}]                    # Determine its y-coord
variable      y0 equal y[1699]                    
variable      check0 equal ${check}                       # Count the number of atoms in the simulation
variable      check0 equal 2948                       
variable      b equal ${check}+1                          # The grafted bead id will be one higher after being inserted
variable      b equal 2948+1                          
if            "${twgcount} != $(v_i)" then "jump MDPBB.in loop"
# Otherwise insert the chain directly above the chosen wall atom pointing perpendicular to the wall
create_atoms  1 single ${x0} ${y0} ${z0} mol bs 24987 units box remap yes rotate 0 0 0 1
create_atoms  1 single 10.3181068377933 ${y0} ${z0} mol bs 24987 units box remap yes rotate 0 0 0 1
create_atoms  1 single 10.3181068377933 4.7622031559046 ${z0} mol bs 24987 units box remap yes rotate 0 0 0 1
create_atoms  1 single 10.3181068377933 4.7622031559046 17 mol bs 24987 units box remap yes rotate 0 0 0 1
Created 30 atoms
  create_atoms CPU = 0.0001081 secs
variable      check1 equal ${check}               # Count the new total number of atoms
variable      check1 equal 2978               
# Check that the molecule has indeed been inserted (This check is no longer an issue).
if            "${check1} != ${check0}" then "create_bonds  single/bond 2 ${randatomi} $b" "next i"
create_bonds  single/bond 2 ${randatomi} $b
create_bonds  single/bond 2 1699 $b
create_bonds  single/bond 2 1699 2949
  2 = max # of 1-2 neighbors
  5 = max # of special neighbors
  special bonds CPU = 0.0033719 secs
next i
jump MDPBB.in loop    # End of the loop
variable      randni equal round(random(1,${ntwall},$s))  # Pick a random "top" wall atom
variable      randni equal round(random(1,2888,$s))  
variable      randni equal round(random(1,2888,234897))  
variable      randatomi equal ${randni}                   # This is to obtain an integer number for atom-id
variable      randatomi equal 2456                   
variable      randzi equal z[${randatomi}]                # Determine the z coordinate of the chosen atom
variable      randzi equal z[2456]                
# if the chosen atom is not a surface atom then restart the loop
if            "${randzi} < $(v_wthick - 0.7)" then "jump MDPBB.in loop"
set           atom ${randatomi} type 4                    # Set this grafted wall atom as a new type
set           atom 2456 type 4                    
  1 settings made for type
group         twg id ${randatomi}                         # Add this atom to a top-wall-grafted group
group         twg id 2456                         
4 atoms in group twg
variable      twgcount equal count(twg)
print         "twg contains ${twgcount}"
twg contains 4
print         "i = $(v_i)"                                # The index i should always be equal to the number of atom in twg
i = 4
variable      x0 equal x[${randatomi}]                    # Determine its x-coord
variable      x0 equal x[2456]                    
variable      y0 equal y[${randatomi}]                    # Determine its y-coord
variable      y0 equal y[2456]                    
variable      check0 equal ${check}                       # Count the number of atoms in the simulation
variable      check0 equal 2978                       
variable      b equal ${check}+1                          # The grafted bead id will be one higher after being inserted
variable      b equal 2978+1                          
if            "${twgcount} != $(v_i)" then "jump MDPBB.in loop"
# Otherwise insert the chain directly above the chosen wall atom pointing perpendicular to the wall
create_atoms  1 single ${x0} ${y0} ${z0} mol bs 24987 units box remap yes rotate 0 0 0 1
create_atoms  1 single 7.937005259841 ${y0} ${z0} mol bs 24987 units box remap yes rotate 0 0 0 1
create_atoms  1 single 7.937005259841 21.4299142015707 ${z0} mol bs 24987 units box remap yes rotate 0 0 0 1
create_atoms  1 single 7.937005259841 21.4299142015707 17 mol bs 24987 units box remap yes rotate 0 0 0 1
Created 30 atoms
  create_atoms CPU = 0.0001635 secs
variable      check1 equal ${check}               # Count the new total number of atoms
variable      check1 equal 3008               
# Check that the molecule has indeed been inserted (This check is no longer an issue).
if            "${check1} != ${check0}" then "create_bonds  single/bond 2 ${randatomi} $b" "next i"
create_bonds  single/bond 2 ${randatomi} $b
create_bonds  single/bond 2 2456 $b
create_bonds  single/bond 2 2456 2979
  2 = max # of 1-2 neighbors
  5 = max # of special neighbors
  special bonds CPU = 0.0097408 secs
next i
jump MDPBB.in loop    # End of the loop
variable      randni equal round(random(1,${ntwall},$s))  # Pick a random "top" wall atom
variable      randni equal round(random(1,2888,$s))  
variable      randni equal round(random(1,2888,234897))  
variable      randatomi equal ${randni}                   # This is to obtain an integer number for atom-id
variable      randatomi equal 2420                   
variable      randzi equal z[${randatomi}]                # Determine the z coordinate of the chosen atom
variable      randzi equal z[2420]                
# if the chosen atom is not a surface atom then restart the loop
if            "${randzi} < $(v_wthick - 0.7)" then "jump MDPBB.in loop"
set           atom ${randatomi} type 4                    # Set this grafted wall atom as a new type
set           atom 2420 type 4                    
  1 settings made for type
group         twg id ${randatomi}                         # Add this atom to a top-wall-grafted group
group         twg id 2420                         
5 atoms in group twg
variable      twgcount equal count(twg)
print         "twg contains ${twgcount}"
twg contains 5
print         "i = $(v_i)"                                # The index i should always be equal to the number of atom in twg
i = 5
variable      x0 equal x[${randatomi}]                    # Determine its x-coord
variable      x0 equal x[2420]                    
variable      y0 equal y[${randatomi}]                    # Determine its y-coord
variable      y0 equal y[2420]                    
variable      check0 equal ${check}                       # Count the number of atoms in the simulation
variable      check0 equal 3008                       
variable      b equal ${check}+1                          # The grafted bead id will be one higher after being inserted
variable      b equal 3008+1                          
if            "${twgcount} != $(v_i)" then "jump MDPBB.in loop"
# Otherwise insert the chain directly above the chosen wall atom pointing perpendicular to the wall
create_atoms  1 single ${x0} ${y0} ${z0} mol bs 24987 units box remap yes rotate 0 0 0 1
create_atoms  1 single 23.811015779523 ${y0} ${z0} mol bs 24987 units box remap yes rotate 0 0 0 1
create_atoms  1 single 23.811015779523 19.8425131496025 ${z0} mol bs 24987 units box remap yes rotate 0 0 0 1
create_atoms  1 single 23.811015779523 19.8425131496025 17 mol bs 24987 units box remap yes rotate 0 0 0 1
Created 30 atoms
  create_atoms CPU = 0.0001005 secs
variable      check1 equal ${check}               # Count the new total number of atoms
variable      check1 equal 3038               
# Check that the molecule has indeed been inserted (This check is no longer an issue).
if            "${check1} != ${check0}" then "create_bonds  single/bond 2 ${randatomi} $b" "next i"
create_bonds  single/bond 2 ${randatomi} $b
create_bonds  single/bond 2 2420 $b
create_bonds  single/bond 2 2420 3009
  2 = max # of 1-2 neighbors
  5 = max # of special neighbors
  special bonds CPU = 0.0035496 secs
next i
jump MDPBB.in loop    # End of the loop
variable      randni equal round(random(1,${ntwall},$s))  # Pick a random "top" wall atom
variable      randni equal round(random(1,2888,$s))  
variable      randni equal round(random(1,2888,234897))  
variable      randatomi equal ${randni}                   # This is to obtain an integer number for atom-id
variable      randatomi equal 1201                   
variable      randzi equal z[${randatomi}]                # Determine the z coordinate of the chosen atom
variable      randzi equal z[1201]                
# if the chosen atom is not a surface atom then restart the loop
if            "${randzi} < $(v_wthick - 0.7)" then "jump MDPBB.in loop"
jump MDPBB.in loop
variable      randni equal round(random(1,${ntwall},$s))  # Pick a random "top" wall atom
variable      randni equal round(random(1,2888,$s))  
variable      randni equal round(random(1,2888,234897))  
variable      randatomi equal ${randni}                   # This is to obtain an integer number for atom-id
variable      randatomi equal 2884                   
variable      randzi equal z[${randatomi}]                # Determine the z coordinate of the chosen atom
variable      randzi equal z[2884]                
# if the chosen atom is not a surface atom then restart the loop
if            "${randzi} < $(v_wthick - 0.7)" then "jump MDPBB.in loop"
set           atom ${randatomi} type 4                    # Set this grafted wall atom as a new type
set           atom 2884 type 4                    
  1 settings made for type
group         twg id ${randatomi}                         # Add this atom to a top-wall-grafted group
group         twg id 2884                         
6 atoms in group twg
variable      twgcount equal count(twg)
print         "twg contains ${twgcount}"
twg contains 6
print         "i = $(v_i)"                                # The index i should always be equal to the number of atom in twg
i = 6
variable      x0 equal x[${randatomi}]                    # Determine its x-coord
variable      x0 equal x[2884]                    
variable      y0 equal y[${randatomi}]                    # Determine its y-coord
variable      y0 equal y[2884]                    
variable      check0 equal ${check}                       # Count the number of atoms in the simulation
variable      check0 equal 3038                       
variable      b equal ${check}+1                          # The grafted bead id will be one higher after being inserted
variable      b equal 3038+1                          
if            "${twgcount} != $(v_i)" then "jump MDPBB.in loop"
# Otherwise insert the chain directly above the chosen wall atom pointing perpendicular to the wall
create_atoms  1 single ${x0} ${y0} ${z0} mol bs 24987 units box remap yes rotate 0 0 0 1
create_atoms  1 single 26.9858178834594 ${y0} ${z0} mol bs 24987 units box remap yes rotate 0 0 0 1
create_atoms  1 single 26.9858178834594 29.3669194614117 ${z0} mol bs 24987 units box remap yes rotate 0 0 0 1
create_atoms  1 single 26.9858178834594 29.3669194614117 17 mol bs 24987 units box remap yes rotate 0 0 0 1
Created 30 atoms
  create_atoms CPU = 0.0001135 secs
variable      check1 equal ${check}               # Count the new total number of atoms
variable      check1 equal 3068               
# Check that the molecule has indeed been inserted (This check is no longer an issue).
if            "${check1} != ${check0}" then "create_bonds  single/bond 2 ${randatomi} $b" "next i"
create_bonds  single/bond 2 ${randatomi} $b
create_bonds  single/bond 2 2884 $b
create_bonds  single/bond 2 2884 3039
  2 = max # of 1-2 neighbors
  5 = max # of special neighbors
  special bonds CPU = 0.0100298 secs
next i
jump MDPBB.in loop    # End of the loop
variable      randni equal round(random(1,${ntwall},$s))  # Pick a random "top" wall atom
variable      randni equal round(random(1,2888,$s))  
variable      randni equal round(random(1,2888,234897))  
variable      randatomi equal ${randni}                   # This is to obtain an integer number for atom-id
variable      randatomi equal 2815                   
variable      randzi equal z[${randatomi}]                # Determine the z coordinate of the chosen atom
variable      randzi equal z[2815]                
# if the chosen atom is not a surface atom then restart the loop
if            "${randzi} < $(v_wthick - 0.7)" then "jump MDPBB.in loop"
set           atom ${randatomi} type 4                    # Set this grafted wall atom as a new type
set           atom 2815 type 4                    
  1 settings made for type
group         twg id ${randatomi}                         # Add this atom to a top-wall-grafted group
group         twg id 2815                         
7 atoms in group twg
variable      twgcount equal count(twg)
print         "twg contains ${twgcount}"
twg contains 7
print         "i = $(v_i)"                                # The index i should always be equal to the number of atom in twg
i = 7
variable      x0 equal x[${randatomi}]                    # Determine its x-coord
variable      x0 equal x[2815]                    
variable      y0 equal y[${randatomi}]                    # Determine its y-coord
variable      y0 equal y[2815]                    
variable      check0 equal ${check}                       # Count the number of atoms in the simulation
variable      check0 equal 3068                       
variable      b equal ${check}+1                          # The grafted bead id will be one higher after being inserted
variable      b equal 3068+1                          
if            "${twgcount} != $(v_i)" then "jump MDPBB.in loop"
# Otherwise insert the chain directly above the chosen wall atom pointing perpendicular to the wall
create_atoms  1 single ${x0} ${y0} ${z0} mol bs 24987 units box remap yes rotate 0 0 0 1
create_atoms  1 single 0.7937005259841 ${y0} ${z0} mol bs 24987 units box remap yes rotate 0 0 0 1
create_atoms  1 single 0.7937005259841 28.5732189354276 ${z0} mol bs 24987 units box remap yes rotate 0 0 0 1
create_atoms  1 single 0.7937005259841 28.5732189354276 17 mol bs 24987 units box remap yes rotate 0 0 0 1
Created 30 atoms
  create_atoms CPU = 0.0001397 secs
variable      check1 equal ${check}               # Count the new total number of atoms
variable      check1 equal 3098               
# Check that the molecule has indeed been inserted (This check is no longer an issue).
if            "${check1} != ${check0}" then "create_bonds  single/bond 2 ${randatomi} $b" "next i"
create_bonds  single/bond 2 ${randatomi} $b
create_bonds  single/bond 2 2815 $b
create_bonds  single/bond 2 2815 3069
  2 = max # of 1-2 neighbors
  5 = max # of special neighbors
  special bonds CPU = 0.0064176 secs
next i
jump MDPBB.in loop    # End of the loop
variable      randni equal round(random(1,${ntwall},$s))  # Pick a random "top" wall atom
variable      randni equal round(random(1,2888,$s))  
variable      randni equal round(random(1,2888,234897))  
variable      randatomi equal ${randni}                   # This is to obtain an integer number for atom-id
variable      randatomi equal 2092                   
variable      randzi equal z[${randatomi}]                # Determine the z coordinate of the chosen atom
variable      randzi equal z[2092]                
# if the chosen atom is not a surface atom then restart the loop
if            "${randzi} < $(v_wthick - 0.7)" then "jump MDPBB.in loop"
set           atom ${randatomi} type 4                    # Set this grafted wall atom as a new type
set           atom 2092 type 4                    
  1 settings made for type
group         twg id ${randatomi}                         # Add this atom to a top-wall-grafted group
group         twg id 2092                         
8 atoms in group twg
variable      twgcount equal count(twg)
print         "twg contains ${twgcount}"
twg contains 8
print         "i = $(v_i)"                                # The index i should always be equal to the number of atom in twg
i = 8
variable      x0 equal x[${randatomi}]                    # Determine its x-coord
variable      x0 equal x[2092]                    
variable      y0 equal y[${randatomi}]                    # Determine its y-coord
variable      y0 equal y[2092]                    
variable      check0 equal ${check}                       # Count the number of atoms in the simulation
variable      check0 equal 3098                       
variable      b equal ${check}+1                          # The grafted bead id will be one higher after being inserted
variable      b equal 3098+1                          
if            "${twgcount} != $(v_i)" then "jump MDPBB.in loop"
# Otherwise insert the chain directly above the chosen wall atom pointing perpendicular to the wall
create_atoms  1 single ${x0} ${y0} ${z0} mol bs 24987 units box remap yes rotate 0 0 0 1
create_atoms  1 single 14.2866094677138 ${y0} ${z0} mol bs 24987 units box remap yes rotate 0 0 0 1
create_atoms  1 single 14.2866094677138 13.4929089417297 ${z0} mol bs 24987 units box remap yes rotate 0 0 0 1
create_atoms  1 single 14.2866094677138 13.4929089417297 17 mol bs 24987 units box remap yes rotate 0 0 0 1
Created 30 atoms
  create_atoms CPU = 0.0001235 secs
variable      check1 equal ${check}               # Count the new total number of atoms
variable      check1 equal 3128               
# Check that the molecule has indeed been inserted (This check is no longer an issue).
if            "${check1} != ${check0}" then "create_bonds  single/bond 2 ${randatomi} $b" "next i"
create_bonds  single/bond 2 ${randatomi} $b
create_bonds  single/bond 2 2092 $b
create_bonds  single/bond 2 2092 3099
  2 = max # of 1-2 neighbors
  5 = max # of special neighbors
  special bonds CPU = 0.0038265 secs
next i
jump MDPBB.in loop    # End of the loop
variable      randni equal round(random(1,${ntwall},$s))  # Pick a random "top" wall atom
variable      randni equal round(random(1,2888,$s))  
variable      randni equal round(random(1,2888,234897))  
variable      randatomi equal ${randni}                   # This is to obtain an integer number for atom-id
variable      randatomi equal 2713                   
variable      randzi equal z[${randatomi}]                # Determine the z coordinate of the chosen atom
variable      randzi equal z[2713]                
# if the chosen atom is not a surface atom then restart the loop
if            "${randzi} < $(v_wthick - 0.7)" then "jump MDPBB.in loop"
jump MDPBB.in loop
variable      randni equal round(random(1,${ntwall},$s))  # Pick a random "top" wall atom
variable      randni equal round(random(1,2888,$s))  
variable      randni equal round(random(1,2888,234897))  
variable      randatomi equal ${randni}                   # This is to obtain an integer number for atom-id
variable      randatomi equal 682                   
variable      randzi equal z[${randatomi}]                # Determine the z coordinate of the chosen atom
variable      randzi equal z[682]                
# if the chosen atom is not a surface atom then restart the loop
if            "${randzi} < $(v_wthick - 0.7)" then "jump MDPBB.in loop"
jump MDPBB.in loop
variable      randni equal round(random(1,${ntwall},$s))  # Pick a random "top" wall atom
variable      randni equal round(random(1,2888,$s))  
variable      randni equal round(random(1,2888,234897))  
variable      randatomi equal ${randni}                   # This is to obtain an integer number for atom-id
variable      randatomi equal 2694                   
variable      randzi equal z[${randatomi}]                # Determine the z coordinate of the chosen atom
variable      randzi equal z[2694]                
# if the chosen atom is not a surface atom then restart the loop
if            "${randzi} < $(v_wthick - 0.7)" then "jump MDPBB.in loop"
jump MDPBB.in loop
variable      randni equal round(random(1,${ntwall},$s))  # Pick a random "top" wall atom
variable      randni equal round(random(1,2888,$s))  
variable      randni equal round(random(1,2888,234897))  
variable      randatomi equal ${randni}                   # This is to obtain an integer number for atom-id
variable      randatomi equal 378                   
variable      randzi equal z[${randatomi}]                # Determine the z coordinate of the chosen atom
variable      randzi equal z[378]                
# if the chosen atom is not a surface atom then restart the loop
if            "${randzi} < $(v_wthick - 0.7)" then "jump MDPBB.in loop"
jump MDPBB.in loop
variable      randni equal round(random(1,${ntwall},$s))  # Pick a random "top" wall atom
variable      randni equal round(random(1,2888,$s))  
variable      randni equal round(random(1,2888,234897))  
variable      randatomi equal ${randni}                   # This is to obtain an integer number for atom-id
variable      randatomi equal 2456                   
variable      randzi equal z[${randatomi}]                # Determine the z coordinate of the chosen atom
variable      randzi equal z[2456]                
# if the chosen atom is not a surface atom then restart the loop
if            "${randzi} < $(v_wthick - 0.7)" then "jump MDPBB.in loop"
set           atom ${randatomi} type 4                    # Set this grafted wall atom as a new type
set           atom 2456 type 4                    
  1 settings made for type
group         twg id ${randatomi}                         # Add this atom to a top-wall-grafted group
group         twg id 2456                         
8 atoms in group twg
variable      twgcount equal count(twg)
print         "twg contains ${twgcount}"
twg contains 8
print         "i = $(v_i)"                                # The index i should always be equal to the number of atom in twg
i = 9
variable      x0 equal x[${randatomi}]                    # Determine its x-coord
variable      x0 equal x[2456]                    
variable      y0 equal y[${randatomi}]                    # Determine its y-coord
variable      y0 equal y[2456]                    
variable      check0 equal ${check}                       # Count the number of atoms in the simulation
variable      check0 equal 3128                       
variable      b equal ${check}+1                          # The grafted bead id will be one higher after being inserted
variable      b equal 3128+1                          
if            "${twgcount} != $(v_i)" then "jump MDPBB.in loop"
jump MDPBB.in loop
variable      randni equal round(random(1,${ntwall},$s))  # Pick a random "top" wall atom
variable      randni equal round(random(1,2888,$s))  
variable      randni equal round(random(1,2888,234897))  
variable      randatomi equal ${randni}                   # This is to obtain an integer number for atom-id
variable      randatomi equal 2698                   
variable      randzi equal z[${randatomi}]                # Determine the z coordinate of the chosen atom
variable      randzi equal z[2698]                
# if the chosen atom is not a surface atom then restart the loop
if            "${randzi} < $(v_wthick - 0.7)" then "jump MDPBB.in loop"
jump MDPBB.in loop
variable      randni equal round(random(1,${ntwall},$s))  # Pick a random "top" wall atom
variable      randni equal round(random(1,2888,$s))  
variable      randni equal round(random(1,2888,234897))  
variable      randatomi equal ${randni}                   # This is to obtain an integer number for atom-id
variable      randatomi equal 989                   
variable      randzi equal z[${randatomi}]                # Determine the z coordinate of the chosen atom
variable      randzi equal z[989]                
# if the chosen atom is not a surface atom then restart the loop
if            "${randzi} < $(v_wthick - 0.7)" then "jump MDPBB.in loop"
jump MDPBB.in loop
variable      randni equal round(random(1,${ntwall},$s))  # Pick a random "top" wall atom
variable      randni equal round(random(1,2888,$s))  
variable      randni equal round(random(1,2888,234897))  
variable      randatomi equal ${randni}                   # This is to obtain an integer number for atom-id
variable      randatomi equal 752                   
variable      randzi equal z[${randatomi}]                # Determine the z coordinate of the chosen atom
variable      randzi equal z[752]                
# if the chosen atom is not a surface atom then restart the loop
if            "${randzi} < $(v_wthick - 0.7)" then "jump MDPBB.in loop"
jump MDPBB.in loop
variable      randni equal round(random(1,${ntwall},$s))  # Pick a random "top" wall atom
variable      randni equal round(random(1,2888,$s))  
variable      randni equal round(random(1,2888,234897))  
variable      randatomi equal ${randni}                   # This is to obtain an integer number for atom-id
variable      randatomi equal 1918                   
variable      randzi equal z[${randatomi}]                # Determine the z coordinate of the chosen atom
variable      randzi equal z[1918]                
# if the chosen atom is not a surface atom then restart the loop
if            "${randzi} < $(v_wthick - 0.7)" then "jump MDPBB.in loop"
jump MDPBB.in loop
variable      randni equal round(random(1,${ntwall},$s))  # Pick a random "top" wall atom
variable      randni equal round(random(1,2888,$s))  
variable      randni equal round(random(1,2888,234897))  
variable      randatomi equal ${randni}                   # This is to obtain an integer number for atom-id
variable      randatomi equal 1347                   
variable      randzi equal z[${randatomi}]                # Determine the z coordinate of the chosen atom
variable      randzi equal z[1347]                
# if the chosen atom is not a surface atom then restart the loop
if            "${randzi} < $(v_wthick - 0.7)" then "jump MDPBB.in loop"
jump MDPBB.in loop
variable      randni equal round(random(1,${ntwall},$s))  # Pick a random "top" wall atom
variable      randni equal round(random(1,2888,$s))  
variable      randni equal round(random(1,2888,234897))  
variable      randatomi equal ${randni}                   # This is to obtain an integer number for atom-id
variable      randatomi equal 418                   
variable      randzi equal z[${randatomi}]                # Determine the z coordinate of the chosen atom
variable      randzi equal z[418]                
# if the chosen atom is not a surface atom then restart the loop
if            "${randzi} < $(v_wthick - 0.7)" then "jump MDPBB.in loop"
jump MDPBB.in loop
variable      randni equal round(random(1,${ntwall},$s))  # Pick a random "top" wall atom
variable      randni equal round(random(1,2888,$s))  
variable      randni equal round(random(1,2888,234897))  
variable      randatomi equal ${randni}                   # This is to obtain an integer number for atom-id
variable      randatomi equal 2659                   
variable      randzi equal z[${randatomi}]                # Determine the z coordinate of the chosen atom
variable      randzi equal z[2659]                
# if the chosen atom is not a surface atom then restart the loop
if            "${randzi} < $(v_wthick - 0.7)" then "jump MDPBB.in loop"
set           atom ${randatomi} type 4                    # Set this grafted wall atom as a new type
set           atom 2659 type 4                    
  1 settings made for type
group         twg id ${randatomi}                         # Add this atom to a top-wall-grafted group
group         twg id 2659                         
9 atoms in group twg
variable      twgcount equal count(twg)
print         "twg contains ${twgcount}"
twg contains 9
print         "i = $(v_i)"                                # The index i should always be equal to the number of atom in twg
i = 9
variable      x0 equal x[${randatomi}]                    # Determine its x-coord
variable      x0 equal x[2659]                    
variable      y0 equal y[${randatomi}]                    # Determine its y-coord
variable      y0 equal y[2659]                    
variable      check0 equal ${check}                       # Count the number of atoms in the simulation
variable      check0 equal 3128                       
variable      b equal ${check}+1                          # The grafted bead id will be one higher after being inserted
variable      b equal 3128+1                          
if            "${twgcount} != $(v_i)" then "jump MDPBB.in loop"
# Otherwise insert the chain directly above the chosen wall atom pointing perpendicular to the wall
create_atoms  1 single ${x0} ${y0} ${z0} mol bs 24987 units box remap yes rotate 0 0 0 1
create_atoms  1 single 29.3669194614117 ${y0} ${z0} mol bs 24987 units box remap yes rotate 0 0 0 1
create_atoms  1 single 29.3669194614117 23.811015779523 ${z0} mol bs 24987 units box remap yes rotate 0 0 0 1
create_atoms  1 single 29.3669194614117 23.811015779523 17 mol bs 24987 units box remap yes rotate 0 0 0 1
Created 30 atoms
  create_atoms CPU = 0.0001498 secs
variable      check1 equal ${check}               # Count the new total number of atoms
variable      check1 equal 3158               
# Check that the molecule has indeed been inserted (This check is no longer an issue).
if            "${check1} != ${check0}" then "create_bonds  single/bond 2 ${randatomi} $b" "next i"
create_bonds  single/bond 2 ${randatomi} $b
create_bonds  single/bond 2 2659 $b
create_bonds  single/bond 2 2659 3129
  2 = max # of 1-2 neighbors
  5 = max # of special neighbors
  special bonds CPU = 0.0034707 secs
next i
jump MDPBB.in loop    # End of the loop
variable      randni equal round(random(1,${ntwall},$s))  # Pick a random "top" wall atom
variable      randni equal round(random(1,2888,$s))  
variable      randni equal round(random(1,2888,234897))  
variable      randatomi equal ${randni}                   # This is to obtain an integer number for atom-id
variable      randatomi equal 2763                   
variable      randzi equal z[${randatomi}]                # Determine the z coordinate of the chosen atom
variable      randzi equal z[2763]                
# if the chosen atom is not a surface atom then restart the loop
if            "${randzi} < $(v_wthick - 0.7)" then "jump MDPBB.in loop"
set           atom ${randatomi} type 4                    # Set this grafted wall atom as a new type
set           atom 2763 type 4                    
  1 settings made for type
group         twg id ${randatomi}                         # Add this atom to a top-wall-grafted group
group         twg id 2763                         
10 atoms in group twg
variable      twgcount equal count(twg)
print         "twg contains ${twgcount}"
twg contains 10
print         "i = $(v_i)"                                # The index i should always be equal to the number of atom in twg
i = 10
variable      x0 equal x[${randatomi}]                    # Determine its x-coord
variable      x0 equal x[2763]                    
variable      y0 equal y[${randatomi}]                    # Determine its y-coord
variable      y0 equal y[2763]                    
variable      check0 equal ${check}                       # Count the number of atoms in the simulation
variable      check0 equal 3158                       
variable      b equal ${check}+1                          # The grafted bead id will be one higher after being inserted
variable      b equal 3158+1                          
if            "${twgcount} != $(v_i)" then "jump MDPBB.in loop"
# Otherwise insert the chain directly above the chosen wall atom pointing perpendicular to the wall
create_atoms  1 single ${x0} ${y0} ${z0} mol bs 24987 units box remap yes rotate 0 0 0 1
create_atoms  1 single 10.3181068377933 ${y0} ${z0} mol bs 24987 units box remap yes rotate 0 0 0 1
create_atoms  1 single 10.3181068377933 26.9858178834594 ${z0} mol bs 24987 units box remap yes rotate 0 0 0 1
create_atoms  1 single 10.3181068377933 26.9858178834594 17 mol bs 24987 units box remap yes rotate 0 0 0 1
Created 30 atoms
  create_atoms CPU = 0.000173 secs
variable      check1 equal ${check}               # Count the new total number of atoms
variable      check1 equal 3188               
# Check that the molecule has indeed been inserted (This check is no longer an issue).
if            "${check1} != ${check0}" then "create_bonds  single/bond 2 ${randatomi} $b" "next i"
create_bonds  single/bond 2 ${randatomi} $b
create_bonds  single/bond 2 2763 $b
create_bonds  single/bond 2 2763 3159
  2 = max # of 1-2 neighbors
  5 = max # of special neighbors
  special bonds CPU = 0.003015 secs
next i
jump MDPBB.in loop    # End of the loop
variable      randni equal round(random(1,${ntwall},$s))  # Pick a random "top" wall atom
variable      randni equal round(random(1,2888,$s))  
variable      randni equal round(random(1,2888,234897))  
variable      randatomi equal ${randni}                   # This is to obtain an integer number for atom-id
variable      randatomi equal 2611                   
variable      randzi equal z[${randatomi}]                # Determine the z coordinate of the chosen atom
variable      randzi equal z[2611]                
# if the chosen atom is not a surface atom then restart the loop
if            "${randzi} < $(v_wthick - 0.7)" then "jump MDPBB.in loop"
set           atom ${randatomi} type 4                    # Set this grafted wall atom as a new type
set           atom 2611 type 4                    
  1 settings made for type
group         twg id ${randatomi}                         # Add this atom to a top-wall-grafted group
group         twg id 2611                         
11 atoms in group twg
variable      twgcount equal count(twg)
print         "twg contains ${twgcount}"
twg contains 11
print         "i = $(v_i)"                                # The index i should always be equal to the number of atom in twg
i = 11
variable      x0 equal x[${randatomi}]                    # Determine its x-coord
variable      x0 equal x[2611]                    
variable      y0 equal y[${randatomi}]                    # Determine its y-coord
variable      y0 equal y[2611]                    
variable      check0 equal ${check}                       # Count the number of atoms in the simulation
variable      check0 equal 3188                       
variable      b equal ${check}+1                          # The grafted bead id will be one higher after being inserted
variable      b equal 3188+1                          
if            "${twgcount} != $(v_i)" then "jump MDPBB.in loop"
# Otherwise insert the chain directly above the chosen wall atom pointing perpendicular to the wall
create_atoms  1 single ${x0} ${y0} ${z0} mol bs 24987 units box remap yes rotate 0 0 0 1
create_atoms  1 single 10.3181068377933 ${y0} ${z0} mol bs 24987 units box remap yes rotate 0 0 0 1
create_atoms  1 single 10.3181068377933 23.811015779523 ${z0} mol bs 24987 units box remap yes rotate 0 0 0 1
create_atoms  1 single 10.3181068377933 23.811015779523 17 mol bs 24987 units box remap yes rotate 0 0 0 1
Created 30 atoms
  create_atoms CPU = 0.0001045 secs
variable      check1 equal ${check}               # Count the new total number of atoms
variable      check1 equal 3218               
# Check that the molecule has indeed been inserted (This check is no longer an issue).
if            "${check1} != ${check0}" then "create_bonds  single/bond 2 ${randatomi} $b" "next i"
create_bonds  single/bond 2 ${randatomi} $b
create_bonds  single/bond 2 2611 $b
create_bonds  single/bond 2 2611 3189
  2 = max # of 1-2 neighbors
  5 = max # of special neighbors
  special bonds CPU = 0.0049349 secs
next i
jump MDPBB.in loop    # End of the loop
variable      randni equal round(random(1,${ntwall},$s))  # Pick a random "top" wall atom
variable      randni equal round(random(1,2888,$s))  
variable      randni equal round(random(1,2888,234897))  
variable      randatomi equal ${randni}                   # This is to obtain an integer number for atom-id
variable      randatomi equal 2302                   
variable      randzi equal z[${randatomi}]                # Determine the z coordinate of the chosen atom
variable      randzi equal z[2302]                
# if the chosen atom is not a surface atom then restart the loop
if            "${randzi} < $(v_wthick - 0.7)" then "jump MDPBB.in loop"
jump MDPBB.in loop
variable      randni equal round(random(1,${ntwall},$s))  # Pick a random "top" wall atom
variable      randni equal round(random(1,2888,$s))  
variable      randni equal round(random(1,2888,234897))  
variable      randatomi equal ${randni}                   # This is to obtain an integer number for atom-id
variable      randatomi equal 1267                   
variable      randzi equal z[${randatomi}]                # Determine the z coordinate of the chosen atom
variable      randzi equal z[1267]                
# if the chosen atom is not a surface atom then restart the loop
if            "${randzi} < $(v_wthick - 0.7)" then "jump MDPBB.in loop"
jump MDPBB.in loop
variable      randni equal round(random(1,${ntwall},$s))  # Pick a random "top" wall atom
variable      randni equal round(random(1,2888,$s))  
variable      randni equal round(random(1,2888,234897))  
variable      randatomi equal ${randni}                   # This is to obtain an integer number for atom-id
variable      randatomi equal 1072                   
variable      randzi equal z[${randatomi}]                # Determine the z coordinate of the chosen atom
variable      randzi equal z[1072]                
# if the chosen atom is not a surface atom then restart the loop
if            "${randzi} < $(v_wthick - 0.7)" then "jump MDPBB.in loop"
jump MDPBB.in loop
variable      randni equal round(random(1,${ntwall},$s))  # Pick a random "top" wall atom
variable      randni equal round(random(1,2888,$s))  
variable      randni equal round(random(1,2888,234897))  
variable      randatomi equal ${randni}                   # This is to obtain an integer number for atom-id
variable      randatomi equal 2025                   
variable      randzi equal z[${randatomi}]                # Determine the z coordinate of the chosen atom
variable      randzi equal z[2025]                
# if the chosen atom is not a surface atom then restart the loop
if            "${randzi} < $(v_wthick - 0.7)" then "jump MDPBB.in loop"
jump MDPBB.in loop
variable      randni equal round(random(1,${ntwall},$s))  # Pick a random "top" wall atom
variable      randni equal round(random(1,2888,$s))  
variable      randni equal round(random(1,2888,234897))  
variable      randatomi equal ${randni}                   # This is to obtain an integer number for atom-id
variable      randatomi equal 271                   
variable      randzi equal z[${randatomi}]                # Determine the z coordinate of the chosen atom
variable      randzi equal z[271]                
# if the chosen atom is not a surface atom then restart the loop
if            "${randzi} < $(v_wthick - 0.7)" then "jump MDPBB.in loop"
jump MDPBB.in loop
variable      randni equal round(random(1,${ntwall},$s))  # Pick a random "top" wall atom
variable      randni equal round(random(1,2888,$s))  
variable      randni equal round(random(1,2888,234897))  
variable      randatomi equal ${randni}                   # This is to obtain an integer number for atom-id
variable      randatomi equal 1094                   
variable      randzi equal z[${randatomi}]                # Determine the z coordinate of the chosen atom
variable      randzi equal z[1094]                
# if the chosen atom is not a surface atom then restart the loop
if            "${randzi} < $(v_wthick - 0.7)" then "jump MDPBB.in loop"
jump MDPBB.in loop
variable      randni equal round(random(1,${ntwall},$s))  # Pick a random "top" wall atom
variable      randni equal round(random(1,2888,$s))  
variable      randni equal round(random(1,2888,234897))  
variable      randatomi equal ${randni}                   # This is to obtain an integer number for atom-id
variable      randatomi equal 1260                   
variable      randzi equal z[${randatomi}]                # Determine the z coordinate of the chosen atom
variable      randzi equal z[1260]                
# if the chosen atom is not a surface atom then restart the loop
if            "${randzi} < $(v_wthick - 0.7)" then "jump MDPBB.in loop"
jump MDPBB.in loop
variable      randni equal round(random(1,${ntwall},$s))  # Pick a random "top" wall atom
variable      randni equal round(random(1,2888,$s))  
variable      randni equal round(random(1,2888,234897))  
variable      randatomi equal ${randni}                   # This is to obtain an integer number for atom-id
variable      randatomi equal 949                   
variable      randzi equal z[${randatomi}]                # Determine the z coordinate of the chosen atom
variable      randzi equal z[949]                
# if the chosen atom is not a surface atom then restart the loop
if            "${randzi} < $(v_wthick - 0.7)" then "jump MDPBB.in loop"
jump MDPBB.in loop
variable      randni equal round(random(1,${ntwall},$s))  # Pick a random "top" wall atom
variable      randni equal round(random(1,2888,$s))  
variable      randni equal round(random(1,2888,234897))  
variable      randatomi equal ${randni}                   # This is to obtain an integer number for atom-id
variable      randatomi equal 1761                   
variable      randzi equal z[${randatomi}]                # Determine the z coordinate of the chosen atom
variable      randzi equal z[1761]                
# if the chosen atom is not a surface atom then restart the loop
if            "${randzi} < $(v_wthick - 0.7)" then "jump MDPBB.in loop"
jump MDPBB.in loop
variable      randni equal round(random(1,${ntwall},$s))  # Pick a random "top" wall atom
variable      randni equal round(random(1,2888,$s))  
variable      randni equal round(random(1,2888,234897))  
variable      randatomi equal ${randni}                   # This is to obtain an integer number for atom-id
variable      randatomi equal 827                   
variable      randzi equal z[${randatomi}]                # Determine the z coordinate of the chosen atom
variable      randzi equal z[827]                
# if the chosen atom is not a surface atom then restart the loop
if            "${randzi} < $(v_wthick - 0.7)" then "jump MDPBB.in loop"
jump MDPBB.in loop
variable      randni equal round(random(1,${ntwall},$s))  # Pick a random "top" wall atom
variable      randni equal round(random(1,2888,$s))  
variable      randni equal round(random(1,2888,234897))  
variable      randatomi equal ${randni}                   # This is to obtain an integer number for atom-id
variable      randatomi equal 688                   
variable      randzi equal z[${randatomi}]                # Determine the z coordinate of the chosen atom
variable      randzi equal z[688]                
# if the chosen atom is not a surface atom then restart the loop
if            "${randzi} < $(v_wthick - 0.7)" then "jump MDPBB.in loop"
jump MDPBB.in loop
variable      randni equal round(random(1,${ntwall},$s))  # Pick a random "top" wall atom
variable      randni equal round(random(1,2888,$s))  
variable      randni equal round(random(1,2888,234897))  
variable      randatomi equal ${randni}                   # This is to obtain an integer number for atom-id
variable      randatomi equal 248                   
variable      randzi equal z[${randatomi}]                # Determine the z coordinate of the chosen atom
variable      randzi equal z[248]                
# if the chosen atom is not a surface atom then restart the loop
if            "${randzi} < $(v_wthick - 0.7)" then "jump MDPBB.in loop"
jump MDPBB.in loop
variable      randni equal round(random(1,${ntwall},$s))  # Pick a random "top" wall atom
variable      randni equal round(random(1,2888,$s))  
variable      randni equal round(random(1,2888,234897))  
variable      randatomi equal ${randni}                   # This is to obtain an integer number for atom-id
variable      randatomi equal 1966                   
variable      randzi equal z[${randatomi}]                # Determine the z coordinate of the chosen atom
variable      randzi equal z[1966]                
# if the chosen atom is not a surface atom then restart the loop
if            "${randzi} < $(v_wthick - 0.7)" then "jump MDPBB.in loop"
jump MDPBB.in loop
variable      randni equal round(random(1,${ntwall},$s))  # Pick a random "top" wall atom
variable      randni equal round(random(1,2888,$s))  
variable      randni equal round(random(1,2888,234897))  
variable      randatomi equal ${randni}                   # This is to obtain an integer number for atom-id
variable      randatomi equal 2118                   
variable      randzi equal z[${randatomi}]                # Determine the z coordinate of the chosen atom
variable      randzi equal z[2118]                
# if the chosen atom is not a surface atom then restart the loop
if            "${randzi} < $(v_wthick - 0.7)" then "jump MDPBB.in loop"
jump MDPBB.in loop
variable      randni equal round(random(1,${ntwall},$s))  # Pick a random "top" wall atom
variable      randni equal round(random(1,2888,$s))  
variable      randni equal round(random(1,2888,234897))  
variable      randatomi equal ${randni}                   # This is to obtain an integer number for atom-id
variable      randatomi equal 973                   
variable      randzi equal z[${randatomi}]                # Determine the z coordinate of the chosen atom
variable      randzi equal z[973]                
# if the chosen atom is not a surface atom then restart the loop
if            "${randzi} < $(v_wthick - 0.7)" then "jump MDPBB.in loop"
jump MDPBB.in loop
variable      randni equal round(random(1,${ntwall},$s))  # Pick a random "top" wall atom
variable      randni equal round(random(1,2888,$s))  
variable      randni equal round(random(1,2888,234897))  
variable      randatomi equal ${randni}                   # This is to obtain an integer number for atom-id
variable      randatomi equal 1444                   
variable      randzi equal z[${randatomi}]                # Determine the z coordinate of the chosen atom
variable      randzi equal z[1444]                
# if the chosen atom is not a surface atom then restart the loop
if            "${randzi} < $(v_wthick - 0.7)" then "jump MDPBB.in loop"
jump MDPBB.in loop
variable      randni equal round(random(1,${ntwall},$s))  # Pick a random "top" wall atom
variable      randni equal round(random(1,2888,$s))  
variable      randni equal round(random(1,2888,234897))  
variable      randatomi equal ${randni}                   # This is to obtain an integer number for atom-id
variable      randatomi equal 1243                   
variable      randzi equal z[${randatomi}]                # Determine the z coordinate of the chosen atom
variable      randzi equal z[1243]                
# if the chosen atom is not a surface atom then restart the loop
if            "${randzi} < $(v_wthick - 0.7)" then "jump MDPBB.in loop"
jump MDPBB.in loop
variable      randni equal round(random(1,${ntwall},$s))  # Pick a random "top" wall atom
variable      randni equal round(random(1,2888,$s))  
variable      randni equal round(random(1,2888,234897))  
variable      randatomi equal ${randni}                   # This is to obtain an integer number for atom-id
variable      randatomi equal 654                   
variable      randzi equal z[${randatomi}]                # Determine the z coordinate of the chosen atom
variable      randzi equal z[654]                
# if the chosen atom is not a surface atom then restart the loop
if            "${randzi} < $(v_wthick - 0.7)" then "jump MDPBB.in loop"
jump MDPBB.in loop
variable      randni equal round(random(1,${ntwall},$s))  # Pick a random "top" wall atom
variable      randni equal round(random(1,2888,$s))  
variable      randni equal round(random(1,2888,234897))  
variable      randatomi equal ${randni}                   # This is to obtain an integer number for atom-id
variable      randatomi equal 1674                   
variable      randzi equal z[${randatomi}]                # Determine the z coordinate of the chosen atom
variable      randzi equal z[1674]                
# if the chosen atom is not a surface atom then restart the loop
if            "${randzi} < $(v_wthick - 0.7)" then "jump MDPBB.in loop"
jump MDPBB.in loop
variable      randni equal round(random(1,${ntwall},$s))  # Pick a random "top" wall atom
variable      randni equal round(random(1,2888,$s))  
variable      randni equal round(random(1,2888,234897))  
variable      randatomi equal ${randni}                   # This is to obtain an integer number for atom-id
variable      randatomi equal 528                   
variable      randzi equal z[${randatomi}]                # Determine the z coordinate of the chosen atom
variable      randzi equal z[528]                
# if the chosen atom is not a surface atom then restart the loop
if            "${randzi} < $(v_wthick - 0.7)" then "jump MDPBB.in loop"
jump MDPBB.in loop
variable      randni equal round(random(1,${ntwall},$s))  # Pick a random "top" wall atom
variable      randni equal round(random(1,2888,$s))  
variable      randni equal round(random(1,2888,234897))  
[...]
 4959000     4.169134    1.2787781    2.8903558  -0.21384638   0.85260968    1.0121786   0.75331344   -1.2465374            1       1.6024     2.215019    2.2349932   0.35718772 0.00051635025   0.05210562 -0.034646989    1.4434131     1.469271   0.70235922  0.066666667    1.3807508        1e-08 1.7558981e-09    5.6950914    2.4850975    30.403515    -0.017446  -0.19381318 -0.015363508   0.20378958   0.18442664   0.78309738 
 4960000    4.1449946    1.2704946       2.8745  -0.22189148   0.84708673    1.0054139    0.7485634   -1.2465374            1    1.6304605    2.2478624    2.2430101   0.40050889  0.015308719  -0.01864434 0.0097788732     1.472476    1.4982212   0.70540928  0.066666667    1.3572499        1e-08 1.7635232e-09    5.6704669    2.4858272    30.403515 0.0071065247  -0.18743069 0.0097546032    0.2407826   0.94874856   0.46004199 
 4961000    4.1607859    1.2689503    2.8918356  -0.22085322   0.84605711    1.0143317    0.7413343   -1.2465374            1    1.6508559    2.2439409    2.2553984   0.45322829  0.019221828  -0.15587784 -0.045608184    1.4943971    1.5174437    0.7017719  0.066666667    1.3698647        1e-08 1.7544298e-09    5.6998577     2.488956    30.403515 -0.0070068195  -0.17629828  0.016064013   0.19573436    1.2882139    2.1697678 
 4962000    4.1847161    1.2804721     2.904244  -0.21737934   0.85373913   0.99642224   0.76496636   -1.2465374            1    1.5122848    2.1374884    2.1302064   0.26915974 -0.011797985 -0.014265213 -0.036035643    1.3508385    1.3812282   0.70404733  0.066666667    1.3645315        1e-08 1.7601183e-09    5.6814362    2.4804455    30.403515 -0.0073197469  -0.22047667 0.0056711647   0.19709697  -0.37300538  -0.56223714 
 4963000    4.1873139    1.2795123    2.9078016  -0.22598926    0.8530992    1.0129953   0.75359913   -1.2465374            1    1.5868878    2.1940696       2.2048   0.36179377 -0.00084719963 -0.032348779  0.031767575    1.4278405    1.4536513   0.70585146  0.066666667    1.3695883        1e-08 1.7646286e-09    5.6669147    2.5008618    30.403515 -0.0020564138  -0.18808707 -0.011285555   0.18821335    2.3156229   -0.5456484 
 4964000    4.1898148     1.263224    2.9265908  -0.20776888   0.84223918     1.013736   0.73550763   -1.2465374            1    1.6672474    2.2787399    2.2474221    0.4755802 -0.0036097181  0.066508711 -0.063699096    1.5120184    1.5339135   0.71164775  0.066666667    1.3725639        1e-08 1.7791194e-09    5.6207583     2.507558    30.403515 -0.0025230811  -0.20222037 -0.010042108   0.18684972    2.1027937    1.6142875 
 4965000    4.1916695    1.2913893    2.9002802  -0.22165231   0.86101803    1.0326571   0.75420107   -1.2465374            1    1.5499915    2.1591214    2.1754256   0.31542747  0.019860178  0.076785638  0.068725135    1.3908172     1.414169   0.70437999  0.066666667    1.3793279        1e-08  1.76095e-09     5.678753     2.476081    30.403515 -0.0022411229  -0.20151784  0.010783073   0.19527604 -0.009356208   0.24273624 
 4966000    4.1920038    1.2726815    2.9193223  -0.21003487   0.84854482    1.0201158   0.74176813   -1.2465374            1    1.6641268    2.2680003    2.2699634   0.45441667  0.011761102 -0.019066934 0.0088821435    1.5075765    1.5299538     0.705177  0.066666667    1.3630248        1e-08 1.7629425e-09    5.6723348    2.5037578    30.403515 0.0011987107  -0.18027264 -0.0089117365   0.21106606    1.9757104   0.16395094 
 4967000    4.1763673    1.2747128    2.9016545  -0.20648184   0.84989917    1.0354851   0.73438855   -1.2465374            1    1.6052187    2.2260574     2.239497   0.35010181 -0.008372994 -0.049185433  0.016700672    1.4502259    1.4690243   0.70143034  0.066666667    1.3840453        1e-08 1.7535758e-09    5.7026333    2.4849375    30.403515 0.0026353944  -0.19769414 0.0032189526   0.19433064   -1.1506625  -0.45955912 
 4968000    4.1908204    1.2852659    2.9055545  -0.22140663   0.85693534    1.0364254   0.74522493   -1.2465374            1    1.5989728    2.2110423    2.2353643   0.35051176 -0.0035279581  0.049223313 0.0082693677    1.4416929    1.4626547   0.70494695  0.066666667    1.4147552        1e-08 1.7623674e-09    5.6741859    2.4910397    30.403515 -0.0066092312  -0.20446875  0.010112095   0.20702827   -2.6704361   -3.0597789 
 4969000    4.1897285    1.2885526     2.901176   -0.2065503   0.85912667    1.0322887   0.75136026   -1.2465374            1    1.5773614    2.1793989    2.2115462   0.34113912 -0.0014077381 -0.004848797 -0.029864952    1.4187867    1.4415874   0.70138636  0.066666667    1.4315191        1e-08 1.7534659e-09    5.7029909    2.4922153    30.403515 0.00048213509   -0.2006416 -0.0040600453   0.16855392   -1.6790866     1.305281 
 4970000    4.1793722    1.2822418    2.8971305  -0.21179812   0.85491902    1.0263388   0.74823768   -1.2465374            1    1.7915871    2.3603376    2.3474959    0.6669278 0.0014992279 -0.016096831  0.029496755    1.6336714    1.6565957   0.69465549  0.066666667    1.4227514        1e-08 1.7366387e-09      5.75825    2.4950841    30.403515 0.0045770952  -0.19523325 -0.0026554578   0.21074217   -1.2481283    2.3058661 
 4971000    4.1912934    1.2911641    2.9001293  -0.21422428   0.86086792     1.038351   0.75040891   -1.2465374            1    1.5635283    2.1920368    2.2113979   0.28715029  0.011686209 0.0019564391 0.0041133482    1.4051544    1.4269569   0.70603687  0.066666667    1.4211724        1e-08 1.7650922e-09    5.6654265    2.4819769    30.403515 0.0014362243  -0.19290806  0.005658293   0.17078001    1.2141583    5.4790649 
 4972000     4.170839    1.2670148    2.9038242  -0.21548171   0.84476665   0.99762241   0.74965269   -1.2465374            1    1.5260094    2.1782475    2.1416992   0.25808152 -0.018185969 0.0074887974 -0.00051632669    1.3677951    1.3947949   0.70316813  0.066666667     1.391697        1e-08 1.7579203e-09    5.6885399    2.5050673    30.403515 -0.0047124723  -0.21368494 -0.016937142   0.18110753   0.65917977   -2.1375135 
 4973000    4.1751043    1.2778635    2.8972409  -0.20793737   0.85199984    1.0235682   0.74522537   -1.2465374            1    1.6233462    2.2715465    2.2045595   0.39393252 -0.010672283  0.047751164 -0.070166158    1.4660662    1.4887191   0.70236027  0.066666667    1.3869304        1e-08 1.7559007e-09    5.6950829    2.4974885    30.403515 -0.0062803129  -0.18435713 -0.010625223   0.18610221   -1.3351669  -0.33440414 
 4974000    4.1886031    1.2775718    2.9110313  -0.21807582   0.85180541    1.0259422   0.74343025   -1.2465374            1    1.5525997    2.1862131     2.175412   0.29617398 0.0098839615  0.018655397 -0.043450601    1.3956986    1.4176604   0.70369437  0.066666667    1.3780332        1e-08 1.7592359e-09    5.6842859    2.4996259    30.403515  0.002130659  -0.19406947 -0.019415798    0.2153359  -0.35211638    2.0435344 
 4975000    4.1801852    1.2899898    2.8901954  -0.20659057   0.86008491    1.0226232   0.75893944   -1.2465374            1    1.7569657    2.3509308    2.3294298   0.59053655 -0.0054963758   0.18060796 -0.020777031    1.5967914     1.622463   0.70585849  0.066666667    1.3726864        1e-08 1.7646462e-09    5.6668582    2.4879924    30.403515 -0.003612825  -0.18656196 -0.00027809378   0.18627512  -0.52693078   -0.3310442 
 4976000    4.1929086    1.2770849    2.9158238  -0.21391117   0.85148074    1.0046855   0.75615043   -1.2465374            1    1.6175604    2.2159634    2.2340821   0.40263567 -0.012085482 -0.022215768   0.04216466    1.4579747    1.4854169   0.70258626  0.066666667    1.3714123        1e-08 1.7564656e-09    5.6932511    2.4847928    30.403515 -0.0039674381  -0.18082459 -0.0081634672   0.20762981  0.018437139    1.9502453 
 4977000    4.1758811    1.2823287    2.8935524  -0.21270458     0.854977    1.0336221   0.74379281   -1.2465374            1    1.5301331     2.166761    2.1687401   0.25489813 -0.011064842  -0.12876368 -0.080068176    1.3731555    1.3941837   0.69609436  0.066666667    1.3586052        1e-08 1.7402359e-09    5.7463474    2.4740661    30.403515 -0.0027381168   -0.2221072 0.0049775244   0.21182199    1.7242141  -0.79179974 
 4978000    4.2042539    1.2758918    2.9283621  -0.20638487   0.85068526     1.014171   0.74894769   -1.2465374            1    1.6594172    2.2472146    2.2754855   0.45555153 0.0024790275  0.067296542  0.051793985    1.5013517    1.5260261   0.69505804  0.066666667    1.3722208        1e-08 1.7376451e-09    5.7549151    2.4959862    30.403515 -0.014462011  -0.17906626 0.0036267532   0.20459559  -0.44981894  -0.83810149 
 4979000    4.1915813    1.2910817    2.9004996  -0.22007802   0.86081292    1.0291796   0.75603529   -1.2465374            1    1.6366311     2.229937    2.2477918   0.43216457 -0.013259064  0.064628399  0.024651883    1.4770697     1.501266   0.70660929  0.066666667    1.3613109        1e-08 1.7665232e-09    5.6608369    2.5079937    30.403515 0.0053474388  -0.24572628 -0.016312984   0.20298446  -0.35906806  -0.35674699 
 4980000    4.2064602    1.2880611     2.918399   -0.2044262   0.85879902    1.0180658   0.75969213   -1.2465374            1    1.6379943     2.260524    2.2434215   0.41003732   0.01140774  0.093239148  0.043482666    1.4776611    1.5040909   0.70254037  0.066666667    1.3760128        1e-08 1.7563509e-09     5.693623    2.4920731    30.403515 0.0022240754  -0.17796861 -0.011791648   0.22930523   -2.0564575    1.0640502 
 4981000    4.1884991    1.2816543    2.9068448  -0.21132887   0.85452735    1.0076401   0.75925494   -1.2465374            1    1.4473831    2.1094781    2.1138855   0.11878576 -0.0012887946  0.065200931  0.011162753    1.2871422     1.314851   0.69243922  0.066666667    1.3685236        1e-08 1.7310981e-09    5.7766803    2.4918708    30.403515 -0.0079028008  -0.22005214 0.0050337815    0.1736347   -1.7226514   -2.8657499 
 4982000    4.2007953    1.2961109    2.9046844   -0.2129281   0.86416613    1.0418059   0.75361006   -1.2465374            1    1.6722886     2.256377    2.2725271   0.48796155 -0.0012783395   0.10168692  -0.05108147     1.513239    1.5352628   0.70201984  0.066666667      1.38072        1e-08 1.7550496e-09    5.6978447     2.487839    30.403515  0.014699646  -0.23363184 -0.0021674478     0.163072     -2.62234   0.86598301 
 4983000    4.1961638    1.2928352    2.9033286  -0.22418799   0.86198205    1.0318666   0.75625867   -1.2465374            1    1.5687541    2.1977983    2.1781805   0.33028348  0.020965109  0.049265343 -0.0073471151    1.4091456    1.4330356   0.70460867  0.066666667    1.3551816        1e-08 1.7615217e-09      5.67691     2.479786    30.403515 -0.013298159  -0.18540035 0.00026827175   0.23069745   -1.1518489    4.1666287 
 4984000    4.1945436    1.2986365    2.8959071  -0.21898427   0.86585001    1.0332615   0.76166855   -1.2465374            1    1.6018972     2.215015    2.2282461   0.36243043 -0.013308723  0.013647457  0.037360319    1.4411469    1.4659952   0.70140909  0.066666667     1.353753        1e-08 1.7535227e-09    5.7028061    2.4809098    30.403515  0.015144581  -0.18697576 -0.002069276   0.15556817  -0.11323478    1.8723648 
 4985000    4.1840864    1.2900042    2.8940823  -0.21754062    0.8600945    1.0212664   0.75980057   -1.2465374            1    1.5913073    2.1878671     2.184799   0.40125584 -0.0030456734   0.13042049  -0.01353056    1.4309513     1.456983   0.70972923  0.066666667    1.3410038        1e-08 1.7743231e-09    5.6359522    2.5128792    30.403515 -0.011087193  -0.19177165  0.017881732   0.22703172   -1.7000318    3.4650494 
 4986000    4.2128339    1.2815482    2.9312857  -0.21631663   0.85445662    1.0199112   0.75149269   -1.2465374            1     1.588295    2.2120976    2.2048022   0.34798519 -0.011660417 -0.047261271 -0.026235309    1.4296923    1.4541489   0.70123019  0.066666667    1.3502736        1e-08 1.7530755e-09     5.704261    2.4751872    30.403515 -0.0068417232  -0.21811648 0.0085230713   0.18870854  0.035604141    3.9326917 
 4987000    4.2017698    1.2904126    2.9113572  -0.21964776   0.86036684    1.0200173   0.76102113   -1.2465374            1    1.4680274    2.0825355    2.1332262   0.18832048 0.0055841889 -0.0070763257 -0.0037164792    1.3074138    1.3338674    0.6988667  0.066666667    1.3477248        1e-08 1.7471668e-09    5.7235521    2.4816549    30.403515 -0.013081818  -0.20440686 0.00099182234   0.17224504  0.039571492  -0.20993429 
 4988000    4.1759422    1.2611867    2.9147555  -0.21393807   0.84088085    1.0130772   0.73371312   -1.2465374            1    1.5672478    2.1871542    2.1992981   0.31529102  0.012662833 0.0095967172 -0.014069996    1.4123975    1.4340006   0.70481167  0.066666667    1.3417717        1e-08 1.7620292e-09    5.6752749    2.4834147    30.403515 -0.0029039324  -0.21211789 -0.0069451524   0.17933633   -1.8604648   0.36067535 
 4989000     4.199133    1.2824178    2.9167152   -0.2199378   0.85503641    1.0190045   0.75299901   -1.2465374            1    1.5363826    2.1718009    2.1499683   0.28737878 0.0058123267  0.068019277  -0.02242144    1.3774621    1.4023558   0.70957787  0.066666667    1.3463189        1e-08 1.7739447e-09    5.6371544    2.4824577    30.403515 -0.0018412094   -0.1880977 0.0086987316    0.1741115     -1.42709  -0.92043545 
 4990000    4.1985419    1.2939749     2.904567  -0.21424134   0.86274195    1.0324024   0.75715837   -1.2465374            1    1.4984044    2.1489315     2.136318    0.2099638 -0.00055609769  0.047164901 -0.063957125     1.338606    1.3626154   0.70388151  0.066666667     1.361754        1e-08 1.7597038e-09    5.6827747    2.5071926    30.403515 -0.0080129998    -0.213983   0.01496648   0.18340325  -0.30211303  -0.37961352 
 4991000    4.1825293    1.2753483     2.907181    -0.209233   0.85032289    1.0127341    0.7492549   -1.2465374            1    1.6130136     2.220832    2.2233553   0.39485365  0.019418554 0.0097873737  0.088784537    1.4548833    1.4798116   0.69449187  0.066666667    1.3599744        1e-08 1.7362297e-09    5.7596066    2.5058133    30.403515  0.013246082  -0.15625325 -0.014201444   0.19037852  -0.89501333    3.0433478 
 4992000     4.187424    1.2768917    2.9105323  -0.21596067   0.85135193    1.0090307   0.75323338   -1.2465374            1    1.5199754    2.1139632    2.1615669   0.28439598 -0.0088132751 -0.0063419063  -0.05232942    1.3610054    1.3872604   0.70394577  0.066666667    1.3647161        1e-08 1.7598644e-09    5.6822559    2.5081261    30.403515 0.0070678128  -0.21099342 0.0063713275    0.2341518  -0.86981818   0.88862687 
 4993000    4.1821729    1.2688405    2.9133324  -0.21181355    0.8459839    1.0100138   0.74390638   -1.2465374            1    1.6176436    2.2249631    2.2263981   0.40156967  0.014912462   0.01042599 -0.033109833    1.4606421    1.4847993   0.71082653  0.066666667    1.3626999        1e-08 1.7770663e-09    5.6272519    2.4935804    30.403515 0.0091969052  -0.19542091 -0.0012347836    0.1828014  -0.72820888    6.5467563 
 4994000    4.2050447    1.2971744    2.9078703  -0.21179718   0.86487517    1.0192882   0.76879417   -1.2465374            1     1.543419     2.159598    2.1971976   0.27346141  0.010780175 -0.00038106974 -0.057224841    1.3811649    1.4093549   0.70345179  0.066666667    1.3651006        1e-08 1.7586295e-09    5.6862461    2.5039074    30.403515 -0.0026720351  -0.18381065 -0.005971306   0.19315768  -0.56710714      4.25857 
 4995000    4.1603229    1.2755592    2.8847637   -0.2153451   0.85046352    1.0121495   0.74984752   -1.2465374            1    1.7053322    2.2773815    2.2977656   0.54084959 -0.016537853  -0.08622421  0.024504781    1.5470768     1.572207   0.69820121  0.066666667     1.393155        1e-08 1.745503e-09    5.7290075    2.4948397    30.403515 -0.00051709762  -0.19593485 -0.0013004428   0.18501667   0.70890905    5.3115193 
 4996000    4.1925937    1.2864329    2.9061608  -0.21437371   0.85771339     1.008998    0.7635808   -1.2465374            1    1.4627359    2.1200555    2.1176423   0.15050993  0.013954496 -0.040165374 -0.011123083    1.3015821    1.3300253   0.70334136  0.066666667    1.3709411        1e-08 1.7583534e-09    5.6871389    2.5169724    30.403515 0.0093341575   -0.1764624 -0.0076577852   0.22369644   0.92670996 -0.0068631408 
 4997000    4.1933993    1.2800261    2.9133731  -0.22107373   0.85344178    1.0164514    0.7520014   -1.2465374            1    1.5728982    2.1890929    2.1867049   0.34289692 -0.0093761592  0.032164244 -0.010906201    1.4141882    1.4392072   0.70754214  0.066666667    1.3522991        1e-08 1.7688554e-09    5.6533735    2.5027986    30.403515   0.01255429  -0.21199222  0.014720767   0.19617568   0.96698881   0.34018585 
 4998000    4.2067118    1.2925923    2.9141195  -0.20751144    0.8618201    1.0155722   0.76615048   -1.2465374            1    1.6574228    2.2748597    2.2506006   0.44680796 -0.023231933  0.060437368 -0.014935932    1.4957266    1.5238474    0.6983918  0.066666667    1.3517694        1e-08 1.7459795e-09    5.7274441    2.4857246    30.403515 0.0071286581  -0.17101734 -0.0036563025   0.19476274   0.29671782    2.2506791 
 4999000    4.1995838    1.2739791    2.9256047   -0.2161299   0.84940999    1.0209322   0.74266381   -1.2465374            1    1.6548714    2.2474973    2.2573934   0.45972345 -0.0053800456 -0.0079337545  0.014386603    1.4981321     1.520591   0.69956648  0.066666667    1.3343797        1e-08 1.7489162e-09    5.7178269    2.4820623    30.403515 0.00092979028   -0.1730366 -0.00056219077   0.18927554   0.66774206    2.6128517 
 5000000     4.177922    1.2623919    2.9155301  -0.21477876   0.84168436    1.0179162   0.73200178   -1.2465374            1    1.5797344    2.1873371     2.218334   0.33353205 -0.0078051747   -0.1039837  0.012907283    1.4252453    1.4458507   0.70965737  0.066666667    1.3367578        1e-08 1.7741434e-09    5.6365228    2.4991015    30.403515 -0.0020277697  -0.20721645 0.0030181815   0.22243001   0.63478039   -1.6761478 
Loop time of 7746.39 on 1 procs for 4000000 steps with 9376 atoms

Performance: 223071.514 tau/day, 516.369 timesteps/s
99.4% CPU use with 1 MPI tasks x 1 OpenMP threads

MPI task timing breakdown:
Section |  min time  |  avg time  |  max time  |%varavg| %total
---------------------------------------------------------------
Pair    | 845.61     | 845.61     | 845.61     |   0.0 | 10.92
Bond    | 2107       | 2107       | 2107       |   0.0 | 27.20
Neigh   | 2548.2     | 2548.2     | 2548.2     |   0.0 | 32.90
Comm    | 179.34     | 179.34     | 179.34     |   0.0 |  2.32
Output  | 7.5079     | 7.5079     | 7.5079     |   0.0 |  0.10
Modify  | 1846.1     | 1846.1     | 1846.1     |   0.0 | 23.83
Other   |            | 212.6      |            |       |  2.74

Nlocal:    9376 ave 9376 max 9376 min
Histogram: 1 0 0 0 0 0 0 0 0 0
Nghost:    1641 ave 1641 max 1641 min
Histogram: 1 0 0 0 0 0 0 0 0 0
Neighs:    13610 ave 13610 max 13610 min
Histogram: 1 0 0 0 0 0 0 0 0 0

Total # of neighbors = 13610
Ave neighs/atom = 1.45158
Ave special neighs/atom = 6.92833
Neighbor list builds = 551580
Dangerous builds = 0

#--- Write Restart File ---#

write_restart  ecs.rst
shell          python post.py
shell          mkdir $(v_Vwalli)_V
shell          mkdir 0.010000000000000000208_V
shell          cp -f *.csv $(v_Vwalli)_V
shell          cp -f *.csv 0.010000000000000000208_V
shell          cp -f *.jpg $(v_Vwalli)_V
shell          cp -f *.jpg 0.010000000000000000208_V
WARNING: Shell command returned with non-zero status (src/input.cpp:1365)
shell          cp -f log.lammps $(v_Vwalli)_V
shell          cp -f log.lammps 0.0100