9376
Atoms. Timestep: 4000000
1 7.5e-05 3.55271e-15 10.63
1 0.793776 29.2063 10.63
1 0.828098 29.9252 9.79867
1 0.0825969 29.1835 9.79039
1 1.58748 3.55271e-15 10.63
1 2.38118 29.2063 10.63
1 2.41416 29.9203 9.79029
1 1.59965 29.172 9.86174
1 3.17488 3.55271e-15 10.63
1 3.96858 29.2063 10.63
1 3.98524 29.9069 9.77376
1 3.15853 29.1941 9.82052
1 4.76228 3.55271e-15 10.63
1 5.55598 29.2063 10.63
1 5.55222 29.9262 9.81531
1 4.78854 29.1863 9.8275
1 6.34968 3.55271e-15 10.63
1 7.14338 29.2063 10.63
1 7.16176 29.9297 9.79857
1 6.36167 29.1672 9.81141
1 7.93708 3.55271e-15 10.63
1 8.73078 29.2063 10.63
1 8.71705 29.9357 9.80172
1 7.92697 29.1556 9.84013
1 9.52448 3.55271e-15 10.63
1 10.3182 29.2063 10.63
1 10.3039 29.9327 9.77169
1 9.50576 29.1867 9.84288
1 11.1119 3.55271e-15 10.63
1 11.9056 29.2063 10.63
1 11.9012 29.9514 9.80774
1 11.0979 29.1814 9.82866
1 12.6993 3.55271e-15 10.63
1 13.493 29.2063 10.63
1 13.4804 29.9571 9.79785
1 12.698 29.1989 9.83804
1 14.2867 3.55271e-15 10.63
1 15.0804 29.2063 10.63
1 15.0854 29.9386 9.81971
1 14.2775 29.1762 9.82979
1 15.8741 3.55271e-15 10.63
1 16.6678 29.2063 10.63
1 16.6768 29.9094 9.80059
1 15.8724 29.1555 9.79146
1 17.4615 3.55271e-15 10.63
1 18.2552 29.2063 10.63
1 18.2461 29.927 9.8097
1 17.4613 29.1593 9.82323
1 19.0489 3.55271e-15 10.63
1 19.8426 29.2063 10.63
1 19.8307 29.9374 9.81038
1 19.0262 29.1758 9.81244
1 20.6363 3.55271e-15 10.63
1 21.43 29.2063 10.63
1 21.4456 29.9326 9.8136
1 20.64 29.1826 9.847
1 22.2237 3.55271e-15 10.63
1 23.0174 29.2063 10.63
1 22.9979 29.9141 9.81772
1 22.2397 29.182 9.82731
1 23.8111 3.55271e-15 10.63
1 24.6048 29.2063 10.63
1 24.6125 29.9221 9.79675
1 23.8207 29.174 9.82643
1 25.3985 3.55271e-15 10.63
1 26.1922 29.2063 10.63
1 26.2032 29.9376 9.79325
1 25.378 29.1608 9.82124
1 26.9859 3.55271e-15 10.63
1 27.7796 29.2063 10.63
1 27.7611 29.9131 9.79726
1 26.9845 29.1795 9.84156
1 28.5733 3.55271e-15 10.63
1 29.367 29.2063 10.63
1 29.3107 29.9393 9.76579
1 28.5486 29.1935 9.80855
1 7.5e-05 28.4126 10.63
1 0.793776 27.6189 10.63
1 0.822935 28.3897 9.86652
1 0.0754903 27.601 9.80083
1 1.58748 28.4126 10.63
1 2.38118 27.6189 10.63
1 2.39865 28.3898 9.83241
1 1.60018 27.6286 9.83988
1 3.17488 28.4126 10.63
1 3.96858 27.6189 10.63
1 3.97677 28.388 9.81668
1 3.20739 27.6281 9.82455
1 4.76228 28.4126 10.63
1 5.55598 27.6189 10.63
1 5.55977 28.3924 9.85728
1 4.77363 27.5874 9.8474
1 6.34968 28.4126 10.63
1 7.14338 27.6189 10.63
1 7.14756 28.3859 9.83358
1 6.35997 27.6176 9.85147
1 7.93708 28.4126 10.63
1 8.73078 27.6189 10.63
1 8.72805 28.398 9.83417
1 7.96444 27.6241 9.83856
1 9.52448 28.4126 10.63
1 10.3182 27.6189 10.63
1 10.3056 28.3911 9.82852
1 9.52145 27.6183 9.81493
1 11.1119 28.4126 10.63
1 11.9056 27.6189 10.63
1 11.9196 28.408 9.81251
1 11.1359 27.5847 9.86536
1 12.6993 28.4126 10.63
1 13.493 27.6189 10.63
1 13.4872 28.4025 9.83989
1 12.6805 27.599 9.81263
1 14.2867 28.4126 10.63
1 15.0804 27.6189 10.63
1 15.0714 28.4024 9.82291
1 14.2982 27.611 9.84517
1 15.8741 28.4126 10.63
1 16.6678 27.6189 10.63
1 16.6555 28.4059 9.83486
1 15.89 27.6176 9.85195
1 17.4615 28.4126 10.63
1 18.2552 27.6189 10.63
1 18.2583 28.3829 9.8312
1 17.4613 27.6094 9.83496
1 19.0489 28.4126 10.63
1 19.8426 27.6189 10.63
1 19.8253 28.3984 9.82169
1 19.0514 27.5779 9.83899
1 20.6363 28.4126 10.63
1 21.43 27.6189 10.63
1 21.4223 28.3772 9.84625
1 20.6163 27.5845 9.86119
1 22.2237 28.4126 10.63
1 23.0174 27.6189 10.63
1 23.0262 28.3692 9.81724
1 22.2198 27.6107 9.83852
1 23.8111 28.4126 10.63
1 24.6048 27.6189 10.63
1 24.5883 28.4038 9.82301
1 23.8322 27.6083 9.83884
1 25.3985 28.4126 10.63
1 26.1922 27.6189 10.63
1 26.1717 28.3965 9.87339
1 25.3989 27.6384 9.84546
1 26.9859 28.4126 10.63
1 27.7796 27.6189 10.63
1 27.7856 28.4217 9.81557
1 26.957 27.6232 9.8189
1 28.5733 28.4126 10.63
1 29.367 27.6189 10.63
1 29.3124 28.3849 9.79129
1 28.518 27.5944 9.82279
1 7.5e-05 26.8252 10.63
1 0.793776 26.0315 10.63
1 0.807907 26.8587 9.82611
1 0.0547158 26.0162 9.81746
1 1.58748 26.8252 10.63
1 2.38118 26.0315 10.63
1 2.36629 26.8432 9.85994
1 1.58908 26.0538 9.84541
1 3.17488 26.8252 10.63
1 3.96858 26.0315 10.63
1 3.97099 26.8253 9.84694
1 3.18326 26.0335 9.84058
1 4.76228 26.8252 10.63
1 5.55598 26.0315 10.63
1 5.594 26.829 9.82264
1 4.77108 26.0194 9.80721
1 6.34968 26.8252 10.63
1 7.14338 26.0315 10.63
1 7.16212 26.8511 9.83048
1 6.34759 26.0352 9.83281
1 7.93708 26.8252 10.63
1 8.73078 26.0315 10.63
1 8.74775 26.8287 9.81998
1 7.93686 26.0445 9.8206
1 9.52448 26.8252 10.63
1 10.3182 26.0315 10.63
1 10.3085 26.8208 9.81759
1 9.53064 26.0158 9.84675
1 11.1119 26.8252 10.63
1 11.9056 26.0315 10.63
1 11.9081 26.8129 9.82955
1 11.1297 26.029 9.82082
1 12.6993 26.8252 10.63
1 13.493 26.0315 10.63
1 13.4618 26.8216 9.84089
1 12.6959 26.0011 9.83778
1 14.2867 26.8252 10.63
1 15.0804 26.0315 10.63
1 15.0859 26.8316 9.84345
1 14.2962 26.0391 9.84055
1 15.8741 26.8252 10.63
1 16.6678 26.0315 10.63
1 16.6936 26.8261 9.84455
1 15.8985 26.0225 9.8253
1 17.4615 26.8252 10.63
1 18.2552 26.0315 10.63
1 18.2703 26.8015 9.85361
1 17.4698 25.9979 9.8551
1 19.0489 26.8252 10.63
1 19.8426 26.0315 10.63
1 19.8321 26.8091 9.84922
1 19.0319 26.0233 9.8531
1 20.6363 26.8252 10.63
1 21.43 26.0315 10.63
1 21.4214 26.81 9.83541
1 20.6484 26.0189 9.84177
1 22.2237 26.8252 10.63
1 23.0174 26.0315 10.63
1 23.0203 26.8084 9.85958
1 22.2354 26.0225 9.84352
1 23.8111 26.8252 10.63
1 24.6048 26.0315 10.63
1 24.5895 26.814 9.8513
1 23.8243 26.0216 9.8492
1 25.3985 26.8252 10.63
1 26.1922 26.0315 10.63
1 26.1871 26.8112 9.83552
1 25.4119 26.0405 9.8806
1 26.9859 26.8252 10.63
1 27.7796 26.0315 10.63
1 27.7507 26.801 9.85077
1 26.9653 26.0429 9.83089
1 28.5733 26.8252 10.63
1 29.367 26.0315 10.63
1 29.2911 26.8025 9.80759
1 28.5183 26.0391 9.85383
1 7.5e-05 25.2378 10.63
1 0.793776 24.4441 10.63
1 0.817367 25.2429 9.83437
1 0.062394 24.4225 9.80101
1 1.58748 25.2378 10.63
1 2.38118 24.4441 10.63
1 2.41338 25.2382 9.82607
1 1.61629 24.4262 9.83499
1 3.17488 25.2378 10.63
1 3.96858 24.4441 10.63
1 3.97366 25.2639 9.84005
1 3.19843 24.4388 9.8423
1 4.76228 25.2378 10.63
1 5.55598 24.4441 10.63
1 5.56289 25.2354 9.84328
1 4.75483 24.4542 9.8602
1 6.34968 25.2378 10.63
1 7.14338 24.4441 10.63
1 7.1558 25.2461 9.83821
1 6.36462 24.4333 9.86293
1 7.93708 25.2378 10.63
1 8.73078 24.4441 10.63
1 8.73656 25.2435 9.82275
1 7.96156 24.4368 9.83458
1 9.52448 25.2378 10.63
1 10.3182 24.4441 10.63
1 10.3529 25.2266 9.8371
1 9.52258 24.4481 9.83606
1 11.1119 25.2378 10.63
1 11.9056 24.4441 10.63
1 11.9093 25.2213 9.83816
1 11.1242 24.4249 9.84054
1 12.6993 25.2378 10.63
1 13.493 24.4441 10.63
1 13.5053 25.2458 9.83434
1 12.725 24.4111 9.83959
1 14.2867 25.2378 10.63
1 15.0804 24.4441 10.63
1 15.0838 25.2374 9.84806
1 14.2644 24.4514 9.84196
1 15.8741 25.2378 10.63
1 16.6678 24.4441 10.63
1 16.6501 25.241 9.84887
1 15.875 24.4438 9.83836
1 17.4615 25.2378 10.63
1 18.2552 24.4441 10.63
1 18.2743 25.237 9.83091
1 17.4578 24.4475 9.8375
1 19.0489 25.2378 10.63
1 19.8426 24.4441 10.63
1 19.8118 25.2305 9.82095
1 19.0353 24.424 9.83657
1 20.6363 25.2378 10.63
1 21.43 24.4441 10.63
1 21.3968 25.2328 9.8304
1 20.6259 24.4606 9.83581
1 22.2237 25.2378 10.63
1 23.0174 24.4441 10.63
1 23.032 25.2172 9.82381
1 22.2221 24.4152 9.83755
1 23.8111 25.2378 10.63
1 24.6048 24.4441 10.63
1 24.6148 25.2563 9.81635
1 23.8388 24.4554 9.82951
1 25.3985 25.2378 10.63
1 26.1922 24.4441 10.63
1 26.1819 25.2617 9.83445
1 25.4082 24.473 9.81805
1 26.9859 25.2378 10.63
1 27.7796 24.4441 10.63
1 27.7385 25.2457 9.84945
1 26.9737 24.4372 9.84371
1 28.5733 25.2378 10.63
1 29.367 24.4441 10.63
1 29.2898 25.2341 9.81251
1 28.5471 24.4322 9.83275
1 7.5e-05 23.6504 10.63
1 0.793776 22.8567 10.63
1 0.82151 23.6552 9.84585
1 0.0695366 22.8631 9.81435
1 1.58748 23.6504 10.63
1 2.38118 22.8567 10.63
1 2.41653 23.629 9.82867
1 1.59491 22.8626 9.84169
1 3.17488 23.6504 10.63
1 3.96858 22.8567 10.63
1 3.95721 23.6577 9.8302
1 3.17916 22.8527 9.81122
1 4.76228 23.6504 10.63
1 5.55598 22.8567 10.63
1 5.55036 23.6758 9.85567
1 4.76694 22.8473 9.8304
1 6.34968 23.6504 10.63
1 7.14338 22.8567 10.63
1 7.13438 23.6457 9.8294
1 6.37991 22.8539 9.84034
1 7.93708 23.6504 10.63
1 8.73078 22.8567 10.63
1 8.74834 23.6384 9.83708
1 7.94389 22.8743 9.81804
1 9.52448 23.6504 10.63
1 10.3182 22.8567 10.63
1 10.336 23.6359 9.84161
1 9.51013 22.8501 9.8133
1 11.1119 23.6504 10.63
1 11.9056 22.8567 10.63
1 11.9142 23.6489 9.83836
1 11.1125 22.8606 9.84023
1 12.6993 23.6504 10.63
1 13.493 22.8567 10.63
1 13.5026 23.6391 9.83157
1 12.6966 22.8527 9.82786
1 14.2867 23.6504 10.63
1 15.0804 22.8567 10.63
1 15.0933 23.6673 9.86269
1 14.2842 22.8588 9.83249
1 15.8741 23.6504 10.63
1 16.6678 22.8567 10.63
1 16.6698 23.653 9.83502
1 15.8766 22.8622 9.85585
1 17.4615 23.6504 10.63
1 18.2552 22.8567 10.63
1 18.2355 23.6365 9.82074
1 17.4214 22.8443 9.82832
1 19.0489 23.6504 10.63
1 19.8426 22.8567 10.63
1 19.8468 23.6499 9.82604
1 19.0474 22.8494 9.84401
1 20.6363 23.6504 10.63
1 21.43 22.8567 10.63
1 21.4306 23.64 9.85038
1 20.6137 22.8497 9.84745
1 22.2237 23.6504 10.63
1 23.0174 22.8567 10.63
1 23.0417 23.6662 9.82524
1 22.2099 22.8495 9.83401
1 23.8111 23.6504 10.63
1 24.6048 22.8567 10.63
1 24.6002 23.6545 9.84202
1 23.8286 22.8579 9.85111
1 25.3985 23.6504 10.63
1 26.1922 22.8567 10.63
1 26.1835 23.6508 9.82075
1 25.3827 22.8506 9.85382
1 26.9859 23.6504 10.63
1 27.7796 22.8567 10.63
1 27.7493 23.6551 9.83244
1 26.9734 22.8623 9.87131
1 28.5733 23.6504 10.63
1 29.367 22.8567 10.63
1 29.3005 23.6361 9.83241
1 28.5416 22.8377 9.87803
1 7.5e-05 22.063 10.63
1 0.793776 21.2693 10.63
1 0.80265 22.0497 9.83801
1 0.0553144 21.2775 9.79683
1 1.58748 22.063 10.63
1 2.38118 21.2693 10.63
1 2.37001 22.0803 9.84937
1 1.60881 21.2808 9.81578
1 3.17488 22.063 10.63
1 3.96858 21.2693 10.63
1 3.98348 22.0646 9.8621
1 3.15554 21.2488 9.81077
1 4.76228 22.063 10.63
1 5.55598 21.2693 10.63
1 5.53838 22.0698 9.83318
1 4.77397 21.2683 9.8574
1 6.34968 22.063 10.63
1 7.14338 21.2693 10.63
1 7.17237 22.056 9.82818
1 6.34261 21.2576 9.84315
1 7.93708 22.063 10.63
1 8.73078 21.2693 10.63
1 8.74107 22.0554 9.83482
1 7.95674 21.2521 9.80872
1 9.52448 22.063 10.63
1 10.3182 21.2693 10.63
1 10.2998 22.0563 9.82339
1 9.53057 21.2633 9.83291
1 11.1119 22.063 10.63
1 11.9056 21.2693 10.63
1 11.8857 22.0719 9.8486
1 11.1095 21.2391 9.82054
1 12.6993 22.063 10.63
1 13.493 21.2693 10.63
1 13.5 22.0747 9.81116
1 12.6956 21.2768 9.85984
1 14.2867 22.063 10.63
1 15.0804 21.2693 10.63
1 15.0872 22.0397 9.82886
1 14.2651 21.2811 9.83907
1 15.8741 22.063 10.63
1 16.6678 21.2693 10.63
1 16.6347 22.0598 9.841
1 15.8796 21.2659 9.83857
1 17.4615 22.063 10.63
1 18.2552 21.2693 10.63
1 18.2533 22.0609 9.87265
1 17.4686 21.2553 9.84841
1 19.0489 22.063 10.63
1 19.8426 21.2693 10.63
1 19.85 22.0565 9.84311
1 19.0125 21.263 9.84
1 20.6363 22.063 10.63
1 21.43 21.2693 10.63
1 21.4148 22.0598 9.8206
1 20.6277 21.244 9.83886
1 22.2237 22.063 10.63
1 23.0174 21.2693 10.63
1 23.0207 22.0705 9.85199
1 22.2303 21.2732 9.84611
1 23.8111 22.063 10.63
1 24.6048 21.2693 10.63
1 24.5877 22.0512 9.84459
1 23.8085 21.3073 9.83083
1 25.3985 22.063 10.63
1 26.1922 21.2693 10.63
1 26.1834 22.0513 9.84605
1 25.3869 21.2513 9.82791
1 26.9859 22.063 10.63
1 27.7796 21.2693 10.63
1 27.7541 22.0501 9.83787
1 26.9517 21.2484 9.85119
1 28.5733 22.063 10.63
1 29.367 21.2693 10.63
1 29.3126 22.0494 9.80479
1 28.5406 21.2634 9.85418
1 7.5e-05 20.4756 10.63
1 0.793776 19.6819 10.63
1 0.804318 20.4848 9.83675
1 0.0455073 19.7042 9.80483
1 1.58748 20.4756 10.63
1 2.38118 19.6819 10.63
1 2.38641 20.4528 9.81947
1 1.58373 19.6646 9.81875
1 3.17488 20.4756 10.63
1 3.96858 19.6819 10.63
1 3.97194 20.4549 9.84886
1 3.20649 19.669 9.84902
1 4.76228 20.4756 10.63
1 5.55598 19.6819 10.63
1 5.55601 20.4616 9.8255
1 4.76685 19.6863 9.8246
1 6.34968 20.4756 10.63
1 7.14338 19.6819 10.63
1 7.14236 20.4663 9.84119
1 6.36669 19.6864 9.82986
1 7.93708 20.4756 10.63
1 8.73078 19.6819 10.63
1 8.7492 20.4765 9.85332
1 7.93233 19.6918 9.85513
1 9.52448 20.4756 10.63
1 10.3182 19.6819 10.63
1 10.3274 20.4648 9.81701
1 9.52109 19.6751 9.82012
1 11.1119 20.4756 10.63
1 11.9056 19.6819 10.63
1 11.8993 20.4824 9.83778
1 11.1356 19.6908 9.84178
1 12.6993 20.4756 10.63
1 13.493 19.6819 10.63
1 13.4992 20.4812 9.83507
1 12.6751 19.6925 9.84951
1 14.2867 20.4756 10.63
1 15.0804 19.6819 10.63
1 15.0973 20.4925 9.82936
1 14.2791 19.6994 9.82945
1 15.8741 20.4756 10.63
1 16.6678 19.6819 10.63
1 16.6672 20.4648 9.81301
1 15.859 19.6562 9.84109
1 17.4615 20.4756 10.63
1 18.2552 19.6819 10.63
1 18.2631 20.4492 9.84158
1 17.4573 19.6751 9.81945
1 19.0489 20.4756 10.63
1 19.8426 19.6819 10.63
1 19.8319 20.4848 9.84646
1 19.0587 19.6747 9.82149
1 20.6363 20.4756 10.63
1 21.43 19.6819 10.63
1 21.4346 20.4684 9.83979
1 20.6193 19.6982 9.83296
1 22.2237 20.4756 10.63
1 23.0174 19.6819 10.63
1 22.9962 20.4678 9.82123
1 22.2054 19.7083 9.82273
1 23.8111 20.4756 10.63
1 24.6048 19.6819 10.63
1 24.5953 20.5031 9.85282
1 23.7936 19.7013 9.83886
1 25.3985 20.4756 10.63
1 26.1922 19.6819 10.63
1 26.1612 20.4582 9.84837
1 25.3804 19.66 9.86019
1 26.9859 20.4756 10.63
1 27.7796 19.6819 10.63
1 27.746 20.4775 9.82501
1 26.9521 19.6989 9.84273
1 28.5733 20.4756 10.63
1 29.367 19.6819 10.63
1 29.2876 20.4782 9.81935
1 28.5464 19.6757 9.8421
1 7.5e-05 18.8882 10.63
1 0.793776 18.0945 10.63
1 0.807224 18.8987 9.81224
1 0.051524 18.1037 9.78793
1 1.58748 18.8882 10.63
1 2.38118 18.0945 10.63
1 2.39997 18.8872 9.8388
1 1.60965 18.1182 9.83519
1 3.17488 18.8882 10.63
1 3.96858 18.0945 10.63
1 3.98167 18.8861 9.84699
1 3.19358 18.1161 9.83878
1 4.76228 18.8882 10.63
1 5.55598 18.0945 10.63
1 5.56177 18.8876 9.82942
1 4.7779 18.0911 9.82429
1 6.34968 18.8882 10.63
1 7.14338 18.0945 10.63
1 7.1415 18.9012 9.83504
1 6.35837 18.1083 9.82842
1 7.93708 18.8882 10.63
1 8.73078 18.0945 10.63
1 8.71239 18.8887 9.84796
1 7.94612 18.0892 9.84035
1 9.52448 18.8882 10.63
1 10.3182 18.0945 10.63
1 10.3178 18.8913 9.84861
1 9.54344 18.1134 9.8271
1 11.1119 18.8882 10.63
1 11.9056 18.0945 10.63
1 11.9141 18.868 9.8467
1 11.1315 18.1033 9.83171
1 12.6993 18.8882 10.63
1 13.493 18.0945 10.63
1 13.5027 18.8992 9.82088
1 12.678 18.0932 9.84172
1 14.2867 18.8882 10.63
1 15.0804 18.0945 10.63
1 15.0953 18.8853 9.81419
1 14.2812 18.0777 9.83067
1 15.8741 18.8882 10.63
1 16.6678 18.0945 10.63
1 16.6757 18.8707 9.82805
1 15.8775 18.1116 9.80244
1 17.4615 18.8882 10.63
1 18.2552 18.0945 10.63
1 18.2629 18.8851 9.81009
1 17.458 18.1204 9.82049
1 19.0489 18.8882 10.63
1 19.8426 18.0945 10.63
1 19.8386 18.8939 9.8478
1 19.0547 18.0861 9.83237
1 20.6363 18.8882 10.63
1 21.43 18.0945 10.63
1 21.4083 18.8857 9.82112
1 20.6376 18.0843 9.82913
1 22.2237 18.8882 10.63
1 23.0174 18.0945 10.63
1 23.0072 18.8768 9.83968
1 22.1809 18.0802 9.83679
1 23.8111 18.8882 10.63
1 24.6048 18.0945 10.63
1 24.6075 18.8936 9.82279
1 23.8099 18.0903 9.84335
1 25.3985 18.8882 10.63
1 26.1922 18.0945 10.63
1 26.1736 18.9088 9.84983
1 25.3809 18.0919 9.83464
1 26.9859 18.8882 10.63
1 27.7796 18.0945 10.63
1 27.7566 18.8905 9.84388
1 26.9643 18.1089 9.84819
1 28.5733 18.8882 10.63
1 29.367 18.0945 10.63
1 29.3337 18.882 9.80155
1 28.5573 18.0946 9.86058
1 7.5e-05 17.3008 10.63
1 0.793776 16.5071 10.63
1 0.851163 17.3295 9.84294
1 0.077709 16.5271 9.81313
1 1.58748 17.3008 10.63
1 2.38118 16.5071 10.63
1 2.38392 17.3119 9.84574
1 1.60705 16.4858 9.81949
1 3.17488 17.3008 10.63
1 3.96858 16.5071 10.63
1 3.96619 17.3018 9.84889
1 3.17776 16.5198 9.83781
1 4.76228 17.3008 10.63
1 5.55598 16.5071 10.63
1 5.59653 17.3297 9.8236
1 4.77056 16.5244 9.83998
1 6.34968 17.3008 10.63
1 7.14338 16.5071 10.63
1 7.12623 17.3228 9.80711
1 6.36609 16.5164 9.83171
1 7.93708 17.3008 10.63
1 8.73078 16.5071 10.63
1 8.72776 17.3094 9.84459
1 7.94689 16.5223 9.85181
1 9.52448 17.3008 10.63
1 10.3182 16.5071 10.63
1 10.3148 17.3208 9.84144
1 9.5238 16.5337 9.83383
1 11.1119 17.3008 10.63
1 11.9056 16.5071 10.63
1 11.8999 17.295 9.81163
1 11.103 16.5255 9.80714
1 12.6993 17.3008 10.63
1 13.493 16.5071 10.63
1 13.4786 17.3006 9.84556
1 12.7149 16.4964 9.85034
1 14.2867 17.3008 10.63
1 15.0804 16.5071 10.63
1 15.1043 17.3363 9.83154
1 14.298 16.5098 9.83578
1 15.8741 17.3008 10.63
1 16.6678 16.5071 10.63
1 16.6565 17.3014 9.84964
1 15.861 16.5017 9.8349
1 17.4615 17.3008 10.63
1 18.2552 16.5071 10.63
1 18.2543 17.282 9.84417
1 17.4529 16.4857 9.82484
1 19.0489 17.3008 10.63
1 19.8426 16.5071 10.63
1 19.8286 17.3114 9.82516
1 19.0586 16.5035 9.83694
1 20.6363 17.3008 10.63
1 21.43 16.5071 10.63
1 21.4192 17.2935 9.8295
1 20.6477 16.5279 9.84933
1 22.2237 17.3008 10.63
1 23.0174 16.5071 10.63
1 22.9942 17.2795 9.84667
1 22.2262 16.4962 9.83191
1 23.8111 17.3008 10.63
1 24.6048 16.5071 10.63
1 24.6167 17.3034 9.85521
1 23.8141 16.5191 9.81608
1 25.3985 17.3008 10.63
1 26.1922 16.5071 10.63
1 26.1816 17.2902 9.84473
1 25.4044 16.4886 9.8494
1 26.9859 17.3008 10.63
1 27.7796 16.5071 10.63
1 27.7764 17.3115 9.84023
1 26.9997 16.5162 9.84492
1 28.5733 17.3008 10.63
1 29.367 16.5071 10.63
1 29.3095 17.2869 9.79904
1 28.5493 16.4962 9.83652
1 7.5e-05 15.7134 10.63
1 0.793776 14.9197 10.63
1 0.798541 15.7478 9.84064
1 0.0520153 14.9316 9.79821
1 1.58748 15.7134 10.63
1 2.38118 14.9197 10.63
1 2.40966 15.7041 9.86718
1 1.60603 14.9285 9.8561
1 3.17488 15.7134 10.63
1 3.96858 14.9197 10.63
1 3.97715 15.7178 9.83111
1 3.17912 14.9174 9.83883
1 4.76228 15.7134 10.63
1 5.55598 14.9197 10.63
1 5.56058 15.7023 9.81511
1 4.74858 14.9074 9.8289
1 6.34968 15.7134 10.63
1 7.14338 14.9197 10.63
1 7.12924 15.7289 9.81771
1 6.35771 14.9045 9.84172
1 7.93708 15.7134 10.63
1 8.73078 14.9197 10.63
1 8.71238 15.7109 9.79926
1 7.93094 14.9117 9.8054
1 9.52448 15.7134 10.63
1 10.3182 14.9197 10.63
1 10.2919 15.7225 9.83928
1 9.53149 14.9041 9.82839
1 11.1119 15.7134 10.63
1 11.9056 14.9197 10.63
1 11.8813 15.7139 9.8418
1 11.1102 14.9317 9.84311
1 12.6993 15.7134 10.63
1 13.493 14.9197 10.63
1 13.4798 15.6996 9.82343
1 12.6897 14.8814 9.83798
1 14.2867 15.7134 10.63
1 15.0804 14.9197 10.63
1 15.0825 15.6917 9.83233
1 14.2704 14.9149 9.83723
1 15.8741 15.7134 10.63
1 16.6678 14.9197 10.63
1 16.6692 15.7102 9.84838
1 15.8749 14.9434 9.85207
1 17.4615 15.7134 10.63
1 18.2552 14.9197 10.63
1 18.2913 15.7142 9.8301
1 17.4655 14.9254 9.84303
1 19.0489 15.7134 10.63
1 19.8426 14.9197 10.63
1 19.8367 15.724 9.84112
1 19.0564 14.9172 9.85254
1 20.6363 15.7134 10.63
1 21.43 14.9197 10.63
1 21.4291 15.7126 9.83507
1 20.615 14.9179 9.834
1 22.2237 15.7134 10.63
1 23.0174 14.9197 10.63
1 23.0204 15.702 9.82999
1 22.212 14.9031 9.84942
1 23.8111 15.7134 10.63
1 24.6048 14.9197 10.63
1 24.5862 15.7155 9.85026
1 23.7945 14.9127 9.84567
1 25.3985 15.7134 10.63
1 26.1922 14.9197 10.63
1 26.1691 15.7095 9.8349
1 25.4129 14.9053 9.82758
1 26.9859 15.7134 10.63
1 27.7796 14.9197 10.63
1 27.789 15.6853 9.82176
1 26.9796 14.9213 9.84309
1 28.5733 15.7134 10.63
1 29.367 14.9197 10.63
1 29.3054 15.7226 9.79708
1 28.5453 14.9165 9.82175
1 7.5e-05 14.126 10.63
1 0.793776 13.3323 10.63
1 0.817628 14.1164 9.822
1 0.0506757 13.3399 9.82947
1 1.58748 14.126 10.63
1 2.38118 13.3323 10.63
1 2.39374 14.1228 9.83965
1 1.60872 13.3475 9.83346
1 3.17488 14.126 10.63
1 3.96858 13.3323 10.63
1 3.95865 14.1181 9.84089
1 3.17639 13.3623 9.83123
1 4.76228 14.126 10.63
1 5.55598 13.3323 10.63
1 5.56157 14.1209 9.83388
1 4.76922 13.3374 9.8345
1 6.34968 14.126 10.63
1 7.14338 13.3323 10.63
1 7.13606 14.1129 9.80319
1 6.33917 13.3428 9.81985
1 7.93708 14.126 10.63
1 8.73078 13.3323 10.63
1 8.7171 14.1201 9.8421
1 7.92003 13.3333 9.8407
1 9.52448 14.126 10.63
1 10.3182 13.3323 10.63
1 10.3386 14.1255 9.82334
1 9.53752 13.3313 9.83489
1 11.1119 14.126 10.63
1 11.9056 13.3323 10.63
1 11.8868 14.1281 9.81948
1 11.1096 13.3167 9.84533
1 12.6993 14.126 10.63
1 13.493 13.3323 10.63
1 13.4771 14.1259 9.84741
1 12.6935 13.3451 9.84473
1 14.2867 14.126 10.63
1 15.0804 13.3323 10.63
1 15.0997 14.124 9.82128
1 14.3211 13.3483 9.81887
1 15.8741 14.126 10.63
1 16.6678 13.3323 10.63
1 16.6421 14.1407 9.83641
1 15.8792 13.3309 9.86128
1 17.4615 14.126 10.63
1 18.2552 13.3323 10.63
1 18.2469 14.1309 9.82578
1 17.4416 13.349 9.83246
1 19.0489 14.126 10.63
1 19.8426 13.3323 10.63
1 19.8249 14.1123 9.84987
1 19.0468 13.3144 9.82633
1 20.6363 14.126 10.63
1 21.43 13.3323 10.63
1 21.4254 14.1482 9.83827
1 20.6463 13.3333 9.83943
1 22.2237 14.126 10.63
1 23.0174 13.3323 10.63
1 23.0289 14.1371 9.84891
1 22.2065 13.3457 9.83109
1 23.8111 14.126 10.63
1 24.6048 13.3323 10.63
1 24.6164 14.1239 9.84785
1 23.7943 13.3542 9.82247
1 25.3985 14.126 10.63
1 26.1922 13.3323 10.63
1 26.1917 14.1247 9.81066
1 25.3791 13.32 9.84433
1 26.9859 14.126 10.63
1 27.7796 13.3323 10.63
1 27.7551 14.1205 9.83789
1 26.978 13.3064 9.82556
1 28.5733 14.126 10.63
1 29.367 13.3323 10.63
1 29.2857 14.1335 9.81966
1 28.5339 13.3349 9.83519
1 7.5e-05 12.5386 10.63
1 0.793776 11.7449 10.63
1 0.825528 12.5251 9.84361
1 0.0661785 11.7501 9.8037
1 1.58748 12.5386 10.63
1 2.38118 11.7449 10.63
1 2.418 12.5348 9.8158
1 1.59553 11.7451 9.84112
1 3.17488 12.5386 10.63
1 3.96858 11.7449 10.63
1 3.96953 12.5414 9.83505
1 3.19444 11.7271 9.84814
1 4.76228 12.5386 10.63
1 5.55598 11.7449 10.63
1 5.54461 12.5186 9.83615
1 4.75448 11.7357 9.84818
1 6.34968 12.5386 10.63
1 7.14338 11.7449 10.63
1 7.16433 12.5315 9.82933
1 6.358 11.7457 9.8139
1 7.93708 12.5386 10.63
1 8.73078 11.7449 10.63
1 8.74005 12.5438 9.82914
1 7.9591 11.73 9.82561
1 9.52448 12.5386 10.63
1 10.3182 11.7449 10.63
1 10.2905 12.5232 9.83771
1 9.52496 11.7441 9.8404
1 11.1119 12.5386 10.63
1 11.9056 11.7449 10.63
1 11.918 12.5247 9.85375
1 11.1123 11.7477 9.84749
1 12.6993 12.5386 10.63
1 13.493 11.7449 10.63
1 13.4702 12.5482 9.83634
1 12.7091 11.7329 9.82825
1 14.2867 12.5386 10.63
1 15.0804 11.7449 10.63
1 15.0957 12.5401 9.85151
1 14.2924 11.73 9.84467
1 15.8741 12.5386 10.63
1 16.6678 11.7449 10.63
1 16.6879 12.5348 9.83737
1 15.8729 11.7293 9.85624
1 17.4615 12.5386 10.63
1 18.2552 11.7449 10.63
1 18.2561 12.5315 9.82219
1 17.4803 11.7522 9.83618
1 19.0489 12.5386 10.63
1 19.8426 11.7449 10.63
1 19.8514 12.5325 9.81921
1 19.0602 11.7343 9.83971
1 20.6363 12.5386 10.63
1 21.43 11.7449 10.63
1 21.4357 12.5071 9.83685
1 20.6541 11.7299 9.83644
1 22.2237 12.5386 10.63
1 23.0174 11.7449 10.63
1 22.9883 12.5488 9.83056
1 22.2379 11.7475 9.81882
1 23.8111 12.5386 10.63
1 24.6048 11.7449 10.63
1 24.5645 12.5478 9.86001
1 23.8025 11.769 9.8259
1 25.3985 12.5386 10.63
1 26.1922 11.7449 10.63
1 26.1645 12.5401 9.8248
1 25.3794 11.7369 9.83044
1 26.9859 12.5386 10.63
1 27.7796 11.7449 10.63
1 27.7465 12.5214 9.81551
1 26.9779 11.7603 9.84209
1 28.5733 12.5386 10.63
1 29.367 11.7449 10.63
1 29.3012 12.5363 9.81048
1 28.5327 11.7754 9.8429
1 7.5e-05 10.9512 10.63
1 0.793776 10.1575 10.63
1 0.80717 10.915 9.83727
1 0.0317517 10.1573 9.80854
1 1.58748 10.9512 10.63
1 2.38118 10.1575 10.63
1 2.37025 10.9291 9.85559
1 1.59882 10.142 9.82003
1 3.17488 10.9512 10.63
1 3.96858 10.1575 10.63
1 3.98849 10.9132 9.83478
1 3.17161 10.1428 9.85241
1 4.76228 10.9512 10.63
1 5.55598 10.1575 10.63
1 5.57937 10.9412 9.82564
1 4.78438 10.1625 9.84657
1 6.34968 10.9512 10.63
1 7.14338 10.1575 10.63
1 7.15753 10.9243 9.83237
1 6.33328 10.1494 9.81106
1 7.93708 10.9512 10.63
1 8.73078 10.1575 10.63
1 8.71395 10.9422 9.83118
1 7.93826 10.1374 9.81665
1 9.52448 10.9512 10.63
1 10.3182 10.1575 10.63
1 10.317 10.9604 9.85241
1 9.52105 10.1762 9.81754
1 11.1119 10.9512 10.63
1 11.9056 10.1575 10.63
1 11.9023 10.9366 9.81914
1 11.1124 10.123 9.82099
1 12.6993 10.9512 10.63
1 13.493 10.1575 10.63
1 13.4847 10.9542 9.8497
1 12.6738 10.16 9.82713
1 14.2867 10.9512 10.63
1 15.0804 10.1575 10.63
1 15.0711 10.9479 9.83766
1 14.2675 10.1435 9.84066
1 15.8741 10.9512 10.63
1 16.6678 10.1575 10.63
1 16.6823 10.9549 9.84398
1 15.871 10.1348 9.81996
1 17.4615 10.9512 10.63
1 18.2552 10.1575 10.63
1 18.2406 10.9484 9.84269
1 17.4746 10.1622 9.82563
1 19.0489 10.9512 10.63
1 19.8426 10.1575 10.63
1 19.8487 10.953 9.83579
1 19.0424 10.1736 9.83506
1 20.6363 10.9512 10.63
1 21.43 10.1575 10.63
1 21.4616 10.9611 9.84617
1 20.6408 10.1709 9.83367
1 22.2237 10.9512 10.63
1 23.0174 10.1575 10.63
1 23.0305 10.9558 9.82289
1 22.2366 10.1816 9.83974
1 23.8111 10.9512 10.63
1 24.6048 10.1575 10.63
1 24.5963 10.9534 9.85401
1 23.8159 10.1695 9.84926
1 25.3985 10.9512 10.63
1 26.1922 10.1575 10.63
1 26.1879 10.9682 9.87527
1 25.3857 10.1632 9.81816
1 26.9859 10.9512 10.63
1 27.7796 10.1575 10.63
1 27.7632 10.946 9.82832
1 26.9701 10.1589 9.82927
1 28.5733 10.9512 10.63
1 29.367 10.1575 10.63
1 29.2999 10.9518 9.82074
1 28.5431 10.1497 9.83728
1 7.5e-05 9.36379 10.63
1 0.793776 8.57009 10.63
1 0.821843 9.36885 9.81513
1 0.0689691 8.5505 9.79296
1 1.58748 9.36379 10.63
1 2.38118 8.57009 10.63
1 2.38533 9.35359 9.79124
1 1.58537 8.5845 9.83806
1 3.17488 9.36379 10.63
1 3.96858 8.57009 10.63
1 3.96216 9.3597 9.83636
1 3.18331 8.56351 9.82174
1 4.76228 9.36379 10.63
1 5.55598 8.57009 10.63
1 5.54477 9.36971 9.82613
1 4.7643 8.55657 9.84314
1 6.34968 9.36379 10.63
1 7.14338 8.57009 10.63
1 7.12899 9.3481 9.81933
1 6.35449 8.56787 9.82203
1 7.93708 9.36379 10.63
1 8.73078 8.57009 10.63
1 8.71594 9.35256 9.84671
1 7.91646 8.55866 9.81573
1 9.52448 9.36379 10.63
1 10.3182 8.57009 10.63
1 10.3027 9.34401 9.83305
1 9.50318 8.59227 9.81717
1 11.1119 9.36379 10.63
1 11.9056 8.57009 10.63
1 11.9019 9.35049 9.83789
1 11.1033 8.56951 9.83914
1 12.6993 9.36379 10.63
1 13.493 8.57009 10.63
1 13.4771 9.35214 9.85195
1 12.6872 8.58236 9.84948
1 14.2867 9.36379 10.63
1 15.0804 8.57009 10.63
1 15.0853 9.32723 9.82042
1 14.27 8.56841 9.83677
1 15.8741 9.36379 10.63
1 16.6678 8.57009 10.63
1 16.665 9.36386 9.83062
1 15.8788 8.56796 9.86312
1 17.4615 9.36379 10.63
1 18.2552 8.57009 10.63
1 18.2956 9.37079 9.83402
1 17.4695 8.5795 9.8167
1 19.0489 9.36379 10.63
1 19.8426 8.57009 10.63
1 19.8444 9.36739 9.84153
1 19.0499 8.55925 9.8486
1 20.6363 9.36379 10.63
1 21.43 8.57009 10.63
1 21.4383 9.37511 9.85416
1 20.6324 8.58319 9.85475
1 22.2237 9.36379 10.63
1 23.0174 8.57009 10.63
1 23.0268 9.37134 9.84513
1 22.228 8.57041 9.87121
1 23.8111 9.36379 10.63
1 24.6048 8.57009 10.63
1 24.5922 9.37487 9.85284
1 23.8013 8.55652 9.83135
1 25.3985 9.36379 10.63
1 26.1922 8.57009 10.63
1 26.171 9.37248 9.83527
1 25.3862 8.58433 9.82465
1 26.9859 9.36379 10.63
1 27.7796 8.57009 10.63
1 27.7482 9.38247 9.84821
1 26.9628 8.58879 9.84773
1 28.5733 9.36379 10.63
1 29.367 8.57009 10.63
1 29.3061 9.34157 9.82755
1 28.5406 8.55681 9.86954
1 7.5e-05 7.77639 10.63
1 0.793776 6.98268 10.63
1 0.82777 7.76258 9.80684
1 0.0697178 6.99312 9.81574
1 1.58748 7.77639 10.63
1 2.38118 6.98268 10.63
1 2.39627 7.76664 9.84183
1 1.60385 7.01299 9.82168
1 3.17488 7.77639 10.63
1 3.96858 6.98268 10.63
1 3.98803 7.76468 9.81083
1 3.18043 6.994 9.81289
1 4.76228 7.77639 10.63
1 5.55598 6.98268 10.63
1 5.56263 7.75997 9.84331
1 4.77591 6.99147 9.82103
1 6.34968 7.77639 10.63
1 7.14338 6.98268 10.63
1 7.15957 7.76963 9.81444
1 6.33628 6.98371 9.83014
1 7.93708 7.77639 10.63
1 8.73078 6.98268 10.63
1 8.7283 7.78523 9.82536
1 7.92885 6.99555 9.83851
1 9.52448 7.77639 10.63
1 10.3182 6.98268 10.63
1 10.3074 7.78301 9.84367
1 9.51799 6.98821 9.83134
1 11.1119 7.77639 10.63
1 11.9056 6.98268 10.63
1 11.8911 7.77721 9.84043
1 11.1106 6.97629 9.82162
1 12.6993 7.77639 10.63
1 13.493 6.98268 10.63
1 13.4759 7.78026 9.84669
1 12.6717 6.95699 9.81366
1 14.2867 7.77639 10.63
1 15.0804 6.98268 10.63
1 15.0887 7.76628 9.82368
1 14.2727 6.97582 9.8468
1 15.8741 7.77639 10.63
1 16.6678 6.98268 10.63
1 16.6695 7.77999 9.82035
1 15.8778 6.99144 9.85858
1 17.4615 7.77639 10.63
1 18.2552 6.98268 10.63
1 18.2789 7.78238 9.824
1 17.465 6.99028 9.83992
1 19.0489 7.77639 10.63
1 19.8426 6.98268 10.63
1 19.8434 7.78514 9.8434
1 19.0708 6.99956 9.83416
1 20.6363 7.77639 10.63
1 21.43 6.98268 10.63
1 21.432 7.76405 9.87105
1 20.6269 7.00645 9.8505
1 22.2237 7.77639 10.63
1 23.0174 6.98268 10.63
1 23.0241 7.79552 9.83326
1 22.23 6.97507 9.8415
1 23.8111 7.77639 10.63
1 24.6048 6.98268 10.63
1 24.6076 7.78682 9.8335
1 23.8327 6.98868 9.84006
1 25.3985 7.77639 10.63
1 26.1922 6.98268 10.63
1 26.1791 7.79551 9.83373
1 25.4069 6.97196 9.82381
1 26.9859 7.77639 10.63
1 27.7796 6.98268 10.63
1 27.7455 7.77846 9.83382
1 26.9591 6.9866 9.83623
1 28.5733 7.77639 10.63
1 29.367 6.98268 10.63
1 29.3103 7.78219 9.8188
1 28.539 6.98902 9.82698
1 7.5e-05 6.18898 10.63
1 0.793776 5.39528 10.63
1 0.833731 6.18982 9.83249
1 0.0501771 5.39256 9.81484
1 1.58748 6.18898 10.63
1 2.38118 5.39528 10.63
1 2.40312 6.16001 9.83784
1 1.58145 5.4073 9.83966
1 3.17488 6.18898 10.63
1 3.96858 5.39528 10.63
1 3.99027 6.21353 9.84101
1 3.19513 5.39268 9.85121
1 4.76228 6.18898 10.63
1 5.55598 5.39528 10.63
1 5.55412 6.19126 9.79524
1 4.7531 5.40937 9.85915
1 6.34968 6.18898 10.63
1 7.14338 5.39528 10.63
1 7.11228 6.18733 9.84145
1 6.34884 5.4154 9.85337
1 7.93708 6.18898 10.63
1 8.73078 5.39528 10.63
1 8.73955 6.18832 9.85987
1 7.93569 5.40398 9.88168
1 9.52448 6.18898 10.63
1 10.3182 5.39528 10.63
1 10.2984 6.1711 9.83402
1 9.53561 5.38188 9.81836
1 11.1119 6.18898 10.63
1 11.9056 5.39528 10.63
1 11.9101 6.19594 9.84945
1 11.1349 5.38933 9.80683
1 12.6993 6.18898 10.63
1 13.493 5.39528 10.63
1 13.4668 6.18807 9.84805
1 12.7066 5.39053 9.84555
1 14.2867 6.18898 10.63
1 15.0804 5.39528 10.63
1 15.0583 6.19249 9.82101
1 14.2999 5.42288 9.84764
1 15.8741 6.18898 10.63
1 16.6678 5.39528 10.63
1 16.6587 6.18704 9.85293
1 15.8699 5.38314 9.84825
1 17.4615 6.18898 10.63
1 18.2552 5.39528 10.63
1 18.2695 6.20123 9.82044
1 17.4641 5.39632 9.83781
1 19.0489 6.18898 10.63
1 19.8426 5.39528 10.63
1 19.84 6.19108 9.82789
1 19.0544 5.39143 9.84105
1 20.6363 6.18898 10.63
1 21.43 5.39528 10.63
1 21.4345 6.19948 9.84887
1 20.6539 5.40433 9.87341
1 22.2237 6.18898 10.63
1 23.0174 5.39528 10.63
1 23.0399 6.19721 9.82856
1 22.2259 5.40944 9.85219
1 23.8111 6.18898 10.63
1 24.6048 5.39528 10.63
1 24.5957 6.18917 9.82804
1 23.8049 5.37833 9.8374
1 25.3985 6.18898 10.63