9376
Atoms. Timestep: 700000
1 0 3.55271e-15 10.686
1 0.793701 29.2063 10.686
1 0.826259 29.9561 9.85065
1 0.077306 29.1831 9.84297
1 1.5874 3.55271e-15 10.686
1 2.3811 29.2063 10.686
1 2.35517 29.955 9.88719
1 1.62232 29.1924 9.87961
1 3.1748 3.55271e-15 10.686
1 3.9685 29.2063 10.686
1 3.96023 29.9448 9.84769
1 3.1802 29.1707 9.89764
1 4.7622 3.55271e-15 10.686
1 5.5559 29.2063 10.686
1 5.55824 29.9237 9.84408
1 4.75817 29.1889 9.88208
1 6.3496 3.55271e-15 10.686
1 7.1433 29.2063 10.686
1 7.14928 29.9317 9.84453
1 6.35163 29.1797 9.88617
1 7.93701 3.55271e-15 10.686
1 8.73071 29.2063 10.686
1 8.76026 29.9483 9.84582
1 7.93669 29.1974 9.87982
1 9.52441 3.55271e-15 10.686
1 10.3181 29.2063 10.686
1 10.3305 29.947 9.85331
1 9.53568 29.165 9.87434
1 11.1118 3.55271e-15 10.686
1 11.9055 29.2063 10.686
1 11.9267 29.9444 9.86109
1 11.1428 29.1966 9.88054
1 12.6992 3.55271e-15 10.686
1 13.4929 29.2063 10.686
1 13.5 29.918 9.85728
1 12.7154 29.1819 9.88823
1 14.2866 3.55271e-15 10.686
1 15.0803 29.2063 10.686
1 15.0695 29.946 9.85089
1 14.2772 29.1778 9.87596
1 15.874 3.55271e-15 10.686
1 16.6677 29.2063 10.686
1 16.6625 29.9332 9.87265
1 15.8756 29.1981 9.90516
1 17.4614 3.55271e-15 10.686
1 18.2551 29.2063 10.686
1 18.2534 29.9453 9.85457
1 17.4734 29.1717 9.86035
1 19.0488 3.55271e-15 10.686
1 19.8425 29.2063 10.686
1 19.8345 29.9406 9.84775
1 19.0574 29.17 9.89754
1 20.6362 3.55271e-15 10.686
1 21.4299 29.2063 10.686
1 21.4295 29.946 9.86556
1 20.6252 29.1816 9.88848
1 22.2236 3.55271e-15 10.686
1 23.0173 29.2063 10.686
1 22.9878 29.9331 9.85387
1 22.2316 29.1982 9.86562
1 23.811 3.55271e-15 10.686
1 24.6047 29.2063 10.686
1 24.6037 29.927 9.88318
1 23.7971 29.1736 9.8815
1 25.3984 3.55271e-15 10.686
1 26.1921 29.2063 10.686
1 26.1904 29.9404 9.8817
1 25.416 29.1897 9.88285
1 26.9858 3.55271e-15 10.686
1 27.7795 29.2063 10.686
1 27.767 29.9435 9.84732
1 26.9903 29.1763 9.90028
1 28.5732 3.55271e-15 10.686
1 29.3669 29.2063 10.686
1 29.3071 29.9444 9.83112
1 28.5443 29.1832 9.91181
1 0 28.4126 10.686
1 0.793701 27.6189 10.686
1 0.822808 28.3845 9.85028
1 0.0757861 27.5965 9.84534
1 1.5874 28.4126 10.686
1 2.3811 27.6189 10.686
1 2.40161 28.4057 9.88911
1 1.62198 27.5762 9.88908
1 3.1748 28.4126 10.686
1 3.9685 27.6189 10.686
1 3.97696 28.3931 9.88955
1 3.21865 27.6045 9.88922
1 4.7622 28.4126 10.686
1 5.5559 27.6189 10.686
1 5.56089 28.4028 9.88411
1 4.78825 27.592 9.89431
1 6.3496 28.4126 10.686
1 7.1433 27.6189 10.686
1 7.14256 28.3965 9.90791
1 6.38119 27.6125 9.86466
1 7.93701 28.4126 10.686
1 8.73071 27.6189 10.686
1 8.74079 28.4116 9.88507
1 7.93114 27.6013 9.90494
1 9.52441 28.4126 10.686
1 10.3181 27.6189 10.686
1 10.3396 28.3992 9.88651
1 9.51724 27.6398 9.87971
1 11.1118 28.4126 10.686
1 11.9055 27.6189 10.686
1 11.9265 28.4132 9.87952
1 11.1328 27.615 9.90041
1 12.6992 28.4126 10.686
1 13.4929 27.6189 10.686
1 13.5188 28.4157 9.88801
1 12.7049 27.5956 9.89765
1 14.2866 28.4126 10.686
1 15.0803 27.6189 10.686
1 15.0861 28.4059 9.90075
1 14.3065 27.6021 9.89544
1 15.874 28.4126 10.686
1 16.6677 27.6189 10.686
1 16.6353 28.4026 9.87733
1 15.8659 27.6271 9.88833
1 17.4614 28.4126 10.686
1 18.2551 27.6189 10.686
1 18.2595 28.3939 9.91058
1 17.4497 27.6211 9.91051
1 19.0488 28.4126 10.686
1 19.8425 27.6189 10.686
1 19.8213 28.3789 9.90321
1 19.0243 27.6433 9.90078
1 20.6362 28.4126 10.686
1 21.4299 27.6189 10.686
1 21.4436 28.4145 9.88699
1 20.6385 27.62 9.90846
1 22.2236 28.4126 10.686
1 23.0173 27.6189 10.686
1 23.0226 28.4246 9.88722
1 22.2723 27.6219 9.90395
1 23.811 28.4126 10.686
1 24.6047 27.6189 10.686
1 24.615 28.3761 9.88847
1 23.8237 27.6487 9.89336
1 25.3984 28.4126 10.686
1 26.1921 27.6189 10.686
1 26.1961 28.4142 9.89942
1 25.4071 27.6135 9.91322
1 26.9858 28.4126 10.686
1 27.7795 27.6189 10.686
1 27.7432 28.3937 9.88781
1 26.9503 27.5936 9.89328
1 28.5732 28.4126 10.686
1 29.3669 27.6189 10.686
1 29.313 28.3905 9.87497
1 28.5472 27.6053 9.87956
1 0 26.8252 10.686
1 0.793701 26.0315 10.686
1 0.836816 26.8018 9.90743
1 0.0864463 26.0355 9.86454
1 1.5874 26.8252 10.686
1 2.3811 26.0315 10.686
1 2.40018 26.8163 9.88972
1 1.61094 26.0066 9.87737
1 3.1748 26.8252 10.686
1 3.9685 26.0315 10.686
1 3.9838 26.8058 9.88182
1 3.17297 25.9953 9.90152
1 4.7622 26.8252 10.686
1 5.5559 26.0315 10.686
1 5.5569 26.8082 9.90368
1 4.74784 26.0283 9.89905
1 6.3496 26.8252 10.686
1 7.1433 26.0315 10.686
1 7.1431 26.8124 9.90088
1 6.34755 26.0315 9.90127
1 7.93701 26.8252 10.686
1 8.73071 26.0315 10.686
1 8.72038 26.8126 9.88371
1 7.95098 25.9932 9.88898
1 9.52441 26.8252 10.686
1 10.3181 26.0315 10.686
1 10.3316 26.8319 9.9076
1 9.52886 26.0368 9.88616
1 11.1118 26.8252 10.686
1 11.9055 26.0315 10.686
1 11.9037 26.8046 9.90476
1 11.1159 26.0364 9.89558
1 12.6992 26.8252 10.686
1 13.4929 26.0315 10.686
1 13.4916 26.8355 9.88713
1 12.6831 26.0434 9.91765
1 14.2866 26.8252 10.686
1 15.0803 26.0315 10.686
1 15.0678 26.8369 9.89008
1 14.2962 26.0128 9.88017
1 15.874 26.8252 10.686
1 16.6677 26.0315 10.686
1 16.6653 26.8237 9.87744
1 15.8642 26.0305 9.87941
1 17.4614 26.8252 10.686
1 18.2551 26.0315 10.686
1 18.2388 26.839 9.87274
1 17.4518 26.0585 9.90278
1 19.0488 26.8252 10.686
1 19.8425 26.0315 10.686
1 19.8433 26.8426 9.90264
1 19.0281 26.032 9.88525
1 20.6362 26.8252 10.686
1 21.4299 26.0315 10.686
1 21.4189 26.8301 9.89999
1 20.6282 26.0262 9.88454
1 22.2236 26.8252 10.686
1 23.0173 26.0315 10.686
1 23.0227 26.8294 9.86981
1 22.2418 26.0094 9.87023
1 23.811 26.8252 10.686
1 24.6047 26.0315 10.686
1 24.5805 26.8141 9.90886
1 23.7893 26.0474 9.89052
1 25.3984 26.8252 10.686
1 26.1921 26.0315 10.686
1 26.1864 26.8301 9.88856
1 25.4082 26.0343 9.92034
1 26.9858 26.8252 10.686
1 27.7795 26.0315 10.686
1 27.7408 26.8181 9.90313
1 26.9444 26.0153 9.88962
1 28.5732 26.8252 10.686
1 29.3669 26.0315 10.686
1 29.3028 26.791 9.8578
1 28.5294 26.0486 9.87943
1 0 25.2378 10.686
1 0.793701 24.4441 10.686
1 0.808376 25.2508 9.88898
1 0.0734115 24.4604 9.85536
1 1.5874 25.2378 10.686
1 2.3811 24.4441 10.686
1 2.38874 25.2204 9.92084
1 1.61676 24.445 9.88143
1 3.1748 25.2378 10.686
1 3.9685 24.4441 10.686
1 3.97466 25.2238 9.88796
1 3.19013 24.4311 9.90368
1 4.7622 25.2378 10.686
1 5.5559 24.4441 10.686
1 5.54497 25.2318 9.8627
1 4.7832 24.4277 9.88325
1 6.3496 25.2378 10.686
1 7.1433 24.4441 10.686
1 7.13493 25.2434 9.89331
1 6.33096 24.4517 9.90433
1 7.93701 25.2378 10.686
1 8.73071 24.4441 10.686
1 8.72814 25.2194 9.88102
1 7.94684 24.4291 9.85667
1 9.52441 25.2378 10.686
1 10.3181 24.4441 10.686
1 10.3156 25.2375 9.89463
1 9.5421 24.4194 9.86864
1 11.1118 25.2378 10.686
1 11.9055 24.4441 10.686
1 11.9097 25.2193 9.89401
1 11.1083 24.4184 9.89181
1 12.6992 25.2378 10.686
1 13.4929 24.4441 10.686
1 13.5113 25.2218 9.88372
1 12.7014 24.4206 9.9124
1 14.2866 25.2378 10.686
1 15.0803 24.4441 10.686
1 15.0787 25.228 9.88318
1 14.295 24.4312 9.87651
1 15.874 25.2378 10.686
1 16.6677 24.4441 10.686
1 16.6753 25.2322 9.88267
1 15.8711 24.4576 9.89421
1 17.4614 25.2378 10.686
1 18.2551 24.4441 10.686
1 18.2577 25.2363 9.88711
1 17.4626 24.4405 9.90389
1 19.0488 25.2378 10.686
1 19.8425 24.4441 10.686
1 19.8463 25.2206 9.91351
1 19.0091 24.4324 9.88275
1 20.6362 25.2378 10.686
1 21.4299 24.4441 10.686
1 21.4235 25.2477 9.88724
1 20.6411 24.4387 9.88901
1 22.2236 25.2378 10.686
1 23.0173 24.4441 10.686
1 23.0113 25.2096 9.88387
1 22.2083 24.4577 9.86501
1 23.811 25.2378 10.686
1 24.6047 24.4441 10.686
1 24.5989 25.2345 9.89187
1 23.7984 24.4482 9.90008
1 25.3984 25.2378 10.686
1 26.1921 24.4441 10.686
1 26.1834 25.2151 9.88269
1 25.3606 24.4299 9.91217
1 26.9858 25.2378 10.686
1 27.7795 24.4441 10.686
1 27.7547 25.2364 9.90195
1 26.9661 24.4732 9.88921
1 28.5732 25.2378 10.686
1 29.3669 24.4441 10.686
1 29.3137 25.237 9.85269
1 28.538 24.4587 9.90045
1 0 23.6504 10.686
1 0.793701 22.8567 10.686
1 0.821614 23.6597 9.86019
1 0.0698307 22.8691 9.85358
1 1.5874 23.6504 10.686
1 2.3811 22.8567 10.686
1 2.39259 23.6336 9.88329
1 1.59326 22.8731 9.90417
1 3.1748 23.6504 10.686
1 3.9685 22.8567 10.686
1 3.97419 23.6159 9.90343
1 3.17335 22.8332 9.89723
1 4.7622 23.6504 10.686
1 5.5559 22.8567 10.686
1 5.57455 23.6315 9.91807
1 4.75361 22.8609 9.89225
1 6.3496 23.6504 10.686
1 7.1433 22.8567 10.686
1 7.15442 23.6456 9.88208
1 6.37642 22.8735 9.88533
1 7.93701 23.6504 10.686
1 8.73071 22.8567 10.686
1 8.73792 23.6768 9.89334
1 7.93484 22.8794 9.89856
1 9.52441 23.6504 10.686
1 10.3181 22.8567 10.686
1 10.3289 23.6478 9.88845
1 9.52353 22.8639 9.89993
1 11.1118 23.6504 10.686
1 11.9055 22.8567 10.686
1 11.9025 23.641 9.87959
1 11.0951 22.8585 9.89442
1 12.6992 23.6504 10.686
1 13.4929 22.8567 10.686
1 13.4778 23.6297 9.88017
1 12.7086 22.8611 9.91223
1 14.2866 23.6504 10.686
1 15.0803 22.8567 10.686
1 15.1001 23.6598 9.87025
1 14.2996 22.8883 9.89308
1 15.874 23.6504 10.686
1 16.6677 22.8567 10.686
1 16.6801 23.6392 9.88529
1 15.8703 22.8384 9.89376
1 17.4614 23.6504 10.686
1 18.2551 22.8567 10.686
1 18.2499 23.6253 9.90301
1 17.4572 22.8708 9.87773
1 19.0488 23.6504 10.686
1 19.8425 22.8567 10.686
1 19.8018 23.6388 9.90072
1 19.0434 22.8087 9.90529
1 20.6362 23.6504 10.686
1 21.4299 22.8567 10.686
1 21.4275 23.6382 9.88561
1 20.6262 22.8829 9.88867
1 22.2236 23.6504 10.686
1 23.0173 22.8567 10.686
1 22.986 23.6639 9.90839
1 22.2221 22.8577 9.88681
1 23.811 23.6504 10.686
1 24.6047 22.8567 10.686
1 24.5687 23.6618 9.9167
1 23.7928 22.8576 9.90059
1 25.3984 23.6504 10.686
1 26.1921 22.8567 10.686
1 26.1704 23.6486 9.89382
1 25.3855 22.8478 9.90114
1 26.9858 23.6504 10.686
1 27.7795 22.8567 10.686
1 27.7337 23.6623 9.88629
1 26.9499 22.8508 9.90935
1 28.5732 23.6504 10.686
1 29.3669 22.8567 10.686
1 29.3087 23.649 9.87593
1 28.56 22.8636 9.88099
1 0 22.063 10.686
1 0.793701 21.2693 10.686
1 0.83062 22.0582 9.88581
1 0.0693735 21.2588 9.86841
1 1.5874 22.063 10.686
1 2.3811 21.2693 10.686
1 2.3627 22.076 9.889
1 1.61005 21.2624 9.87338
1 3.1748 22.063 10.686
1 3.9685 21.2693 10.686
1 3.97566 22.0588 9.88088
1 3.15172 21.2627 9.90375
1 4.7622 22.063 10.686
1 5.5559 21.2693 10.686
1 5.55757 22.0779 9.91293
1 4.7728 21.299 9.90506
1 6.3496 22.063 10.686
1 7.1433 21.2693 10.686
1 7.14682 22.0652 9.88465
1 6.35805 21.2512 9.8952
1 7.93701 22.063 10.686
1 8.73071 21.2693 10.686
1 8.74333 22.0831 9.8793
1 7.93281 21.2562 9.89724
1 9.52441 22.063 10.686
1 10.3181 21.2693 10.686
1 10.3105 22.0589 9.87894
1 9.50232 21.2749 9.89229
1 11.1118 22.063 10.686
1 11.9055 21.2693 10.686
1 11.9209 22.0772 9.90072
1 11.1006 21.2706 9.89319
1 12.6992 22.063 10.686
1 13.4929 21.2693 10.686
1 13.4864 22.0681 9.92091
1 12.6987 21.2596 9.88929
1 14.2866 22.063 10.686
1 15.0803 21.2693 10.686
1 15.0952 22.0534 9.90148
1 14.2891 21.2793 9.89491
1 15.874 22.063 10.686
1 16.6677 21.2693 10.686
1 16.7029 22.067 9.89614
1 15.8903 21.2825 9.88259
1 17.4614 22.063 10.686
1 18.2551 21.2693 10.686
1 18.2455 22.0656 9.92524
1 17.4479 21.2643 9.90603
1 19.0488 22.063 10.686
1 19.8425 21.2693 10.686
1 19.8463 22.0491 9.87887
1 19.055 21.2609 9.9011
1 20.6362 22.063 10.686
1 21.4299 21.2693 10.686
1 21.432 22.0767 9.89775
1 20.6274 21.2698 9.92294
1 22.2236 22.063 10.686
1 23.0173 21.2693 10.686
1 23.0273 22.0366 9.8878
1 22.2119 21.2763 9.86945
1 23.811 22.063 10.686
1 24.6047 21.2693 10.686
1 24.6012 22.0435 9.88577
1 23.8404 21.2436 9.88656
1 25.3984 22.063 10.686
1 26.1921 21.2693 10.686
1 26.1961 22.0559 9.89573
1 25.3942 21.2802 9.92255
1 26.9858 22.063 10.686
1 27.7795 21.2693 10.686
1 27.7582 22.0574 9.87925
1 26.9876 21.2798 9.91426
1 28.5732 22.063 10.686
1 29.3669 21.2693 10.686
1 29.3018 22.0409 9.86113
1 28.5594 21.2736 9.87426
1 0 20.4756 10.686
1 0.793701 19.6819 10.686
1 0.823505 20.4606 9.89579
1 0.0658954 19.6825 9.85458
1 1.5874 20.4756 10.686
1 2.3811 19.6819 10.686
1 2.38694 20.4685 9.91516
1 1.61964 19.6781 9.87855
1 3.1748 20.4756 10.686
1 3.9685 19.6819 10.686
1 3.98587 20.4818 9.88936
1 3.21561 19.6934 9.87794
1 4.7622 20.4756 10.686
1 5.5559 19.6819 10.686
1 5.57925 20.4526 9.88399
1 4.75761 19.6808 9.88109
1 6.3496 20.4756 10.686
1 7.1433 19.6819 10.686
1 7.13707 20.4336 9.88344
1 6.35879 19.6448 9.88718
1 7.93701 20.4756 10.686
1 8.73071 19.6819 10.686
1 8.74276 20.48 9.85588
1 7.93757 19.6772 9.89957
1 9.52441 20.4756 10.686
1 10.3181 19.6819 10.686
1 10.2927 20.4797 9.90151
1 9.51041 19.6917 9.89828
1 11.1118 20.4756 10.686
1 11.9055 19.6819 10.686
1 11.8959 20.4765 9.885
1 11.1219 19.6905 9.89325
1 12.6992 20.4756 10.686
1 13.4929 19.6819 10.686
1 13.5188 20.4865 9.86225
1 12.7212 19.6942 9.87589
1 14.2866 20.4756 10.686
1 15.0803 19.6819 10.686
1 15.0719 20.4979 9.88458
1 14.3089 19.6741 9.88264
1 15.874 20.4756 10.686
1 16.6677 19.6819 10.686
1 16.6433 20.4658 9.89071
1 15.8612 19.6577 9.90679
1 17.4614 20.4756 10.686
1 18.2551 19.6819 10.686
1 18.253 20.5049 9.89031
1 17.4495 19.6883 9.89029
1 19.0488 20.4756 10.686
1 19.8425 19.6819 10.686
1 19.8401 20.4718 9.87788
1 19.0372 19.6813 9.90628
1 20.6362 20.4756 10.686
1 21.4299 19.6819 10.686
1 21.4378 20.4763 9.89897
1 20.6253 19.6833 9.8862
1 22.2236 20.4756 10.686
1 23.0173 19.6819 10.686
1 23.0261 20.4514 9.89764
1 22.2421 19.6819 9.88677
1 23.811 20.4756 10.686
1 24.6047 19.6819 10.686
1 24.6297 20.4737 9.89873
1 23.8272 19.6913 9.86609
1 25.3984 20.4756 10.686
1 26.1921 19.6819 10.686
1 26.1796 20.4958 9.8709
1 25.3898 19.6569 9.88662
1 26.9858 20.4756 10.686
1 27.7795 19.6819 10.686
1 27.7581 20.4943 9.87791
1 26.9836 19.7106 9.89744
1 28.5732 20.4756 10.686
1 29.3669 19.6819 10.686
1 29.2968 20.4622 9.86056
1 28.5338 19.7242 9.85156
1 0 18.8882 10.686
1 0.793701 18.0945 10.686
1 0.829142 18.8776 9.91375
1 0.102104 18.1045 9.86997
1 1.5874 18.8882 10.686
1 2.3811 18.0945 10.686
1 2.41538 18.8935 9.89747
1 1.5967 18.0868 9.91055
1 3.1748 18.8882 10.686
1 3.9685 18.0945 10.686
1 3.97528 18.8931 9.89472
1 3.18746 18.0986 9.86822
1 4.7622 18.8882 10.686
1 5.5559 18.0945 10.686
1 5.56234 18.887 9.86959
1 4.76851 18.0939 9.90157
1 6.3496 18.8882 10.686
1 7.1433 18.0945 10.686
1 7.13308 18.8689 9.89669
1 6.38661 18.0868 9.87785
1 7.93701 18.8882 10.686
1 8.73071 18.0945 10.686
1 8.73889 18.8919 9.89594
1 7.93371 18.0785 9.89454
1 9.52441 18.8882 10.686
1 10.3181 18.0945 10.686
1 10.3186 18.88 9.87785
1 9.52356 18.0864 9.90465
1 11.1118 18.8882 10.686
1 11.9055 18.0945 10.686
1 11.9009 18.89 9.89009
1 11.1017 18.0719 9.88477
1 12.6992 18.8882 10.686
1 13.4929 18.0945 10.686
1 13.4927 18.8912 9.92063
1 12.6916 18.1073 9.87754
1 14.2866 18.8882 10.686
1 15.0803 18.0945 10.686
1 15.0771 18.8831 9.8962
1 14.293 18.0759 9.89402
1 15.874 18.8882 10.686
1 16.6677 18.0945 10.686
1 16.6738 18.8886 9.8772
1 15.9093 18.0972 9.90599
1 17.4614 18.8882 10.686
1 18.2551 18.0945 10.686
1 18.2414 18.8886 9.88379
1 17.4648 18.0976 9.89099
1 19.0488 18.8882 10.686
1 19.8425 18.0945 10.686
1 19.8342 18.8828 9.90717
1 19.0532 18.0732 9.90933
1 20.6362 18.8882 10.686
1 21.4299 18.0945 10.686
1 21.4236 18.8773 9.9007
1 20.6359 18.1155 9.88072
1 22.2236 18.8882 10.686
1 23.0173 18.0945 10.686
1 23.0172 18.8875 9.89147
1 22.2364 18.092 9.8852
1 23.811 18.8882 10.686
1 24.6047 18.0945 10.686
1 24.6061 18.8772 9.91327
1 23.7986 18.1127 9.86442
1 25.3984 18.8882 10.686
1 26.1921 18.0945 10.686
1 26.2026 18.8779 9.89376
1 25.4052 18.1026 9.90564
1 26.9858 18.8882 10.686
1 27.7795 18.0945 10.686
1 27.7669 18.8802 9.88651
1 26.9709 18.1004 9.9055
1 28.5732 18.8882 10.686
1 29.3669 18.0945 10.686
1 29.3097 18.9027 9.87878
1 28.5233 18.0975 9.89018
1 0 17.3008 10.686
1 0.793701 16.5071 10.686
1 0.829521 17.3016 9.89356
1 0.0810016 16.5042 9.88069
1 1.5874 17.3008 10.686
1 2.3811 16.5071 10.686
1 2.35818 17.3158 9.88036
1 1.59246 16.537 9.90829
1 3.1748 17.3008 10.686
1 3.9685 16.5071 10.686
1 3.96697 17.2989 9.90888
1 3.16761 16.5111 9.87175
1 4.7622 17.3008 10.686
1 5.5559 16.5071 10.686
1 5.56355 17.3237 9.87924
1 4.74961 16.5102 9.91237
1 6.3496 17.3008 10.686
1 7.1433 16.5071 10.686
1 7.14847 17.3053 9.89909
1 6.33199 16.5431 9.89295
1 7.93701 17.3008 10.686
1 8.73071 16.5071 10.686
1 8.7194 17.2733 9.88274
1 7.92399 16.5112 9.87337
1 9.52441 17.3008 10.686
1 10.3181 16.5071 10.686
1 10.3085 17.3089 9.87032
1 9.51568 16.5079 9.90158
1 11.1118 17.3008 10.686
1 11.9055 16.5071 10.686
1 11.9097 17.3026 9.90205
1 11.1152 16.5272 9.87905
1 12.6992 17.3008 10.686
1 13.4929 16.5071 10.686
1 13.4704 17.3072 9.91207
1 12.6872 16.503 9.90738
1 14.2866 17.3008 10.686
1 15.0803 16.5071 10.686
1 15.1027 17.3223 9.88642
1 14.2948 16.4895 9.88286
1 15.874 17.3008 10.686
1 16.6677 16.5071 10.686
1 16.6617 17.315 9.88407
1 15.887 16.5182 9.88688
1 17.4614 17.3008 10.686
1 18.2551 16.5071 10.686
1 18.2554 17.3019 9.90907
1 17.4213 16.5055 9.90032
1 19.0488 17.3008 10.686
1 19.8425 16.5071 10.686
1 19.8739 17.2863 9.88183
1 19.0427 16.5093 9.89807
1 20.6362 17.3008 10.686
1 21.4299 16.5071 10.686
1 21.4354 17.2822 9.89528
1 20.624 16.4885 9.89447
1 22.2236 17.3008 10.686
1 23.0173 16.5071 10.686
1 23.021 17.2924 9.86793
1 22.2372 16.493 9.91906
1 23.811 17.3008 10.686
1 24.6047 16.5071 10.686
1 24.5878 17.2881 9.89748
1 23.8132 16.5173 9.88348
1 25.3984 17.3008 10.686
1 26.1921 16.5071 10.686
1 26.1845 17.295 9.8988
1 25.4081 16.4837 9.91246
1 26.9858 17.3008 10.686
1 27.7795 16.5071 10.686
1 27.7612 17.2889 9.89844
1 26.9958 16.5038 9.88647
1 28.5732 17.3008 10.686
1 29.3669 16.5071 10.686
1 29.3089 17.2811 9.87995
1 28.5331 16.5099 9.88543
1 0 15.7134 10.686
1 0.793701 14.9197 10.686
1 0.857165 15.6996 9.876
1 0.100385 14.9238 9.85466
1 1.5874 15.7134 10.686
1 2.3811 14.9197 10.686
1 2.35453 15.713 9.89037
1 1.60507 14.8966 9.87723
1 3.1748 15.7134 10.686
1 3.9685 14.9197 10.686
1 3.96064 15.7167 9.90737
1 3.15417 14.917 9.90055
1 4.7622 15.7134 10.686
1 5.5559 14.9197 10.686
1 5.56423 15.7187 9.88748
1 4.76274 14.9085 9.9057
1 6.3496 15.7134 10.686
1 7.1433 14.9197 10.686
1 7.13406 15.7354 9.90913
1 6.33737 14.9277 9.90033
1 7.93701 15.7134 10.686
1 8.73071 14.9197 10.686
1 8.72914 15.7061 9.86856
1 7.93146 14.9384 9.89703
1 9.52441 15.7134 10.686
1 10.3181 14.9197 10.686
1 10.3351 15.7513 9.88817
1 9.54006 14.948 9.88323
1 11.1118 15.7134 10.686
1 11.9055 14.9197 10.686
1 11.908 15.7188 9.88409
1 11.0843 14.9255 9.90166
1 12.6992 15.7134 10.686
1 13.4929 14.9197 10.686
1 13.5053 15.7264 9.89134
1 12.6883 14.9018 9.91279
1 14.2866 15.7134 10.686
1 15.0803 14.9197 10.686
1 15.0657 15.6805 9.88497
1 14.269 14.8958 9.85292
1 15.874 15.7134 10.686
1 16.6677 14.9197 10.686
1 16.6752 15.7203 9.87739
1 15.8672 14.9218 9.88815
1 17.4614 15.7134 10.686
1 18.2551 14.9197 10.686
1 18.2491 15.7153 9.87994
1 17.4892 14.93 9.88591
1 19.0488 15.7134 10.686
1 19.8425 14.9197 10.686
1 19.8273 15.7281 9.89814
1 19.0308 14.9247 9.88866
1 20.6362 15.7134 10.686
1 21.4299 14.9197 10.686
1 21.4372 15.698 9.9105
1 20.6268 14.9341 9.91556
1 22.2236 15.7134 10.686
1 23.0173 14.9197 10.686
1 23.046 15.7073 9.88012
1 22.2322 14.9292 9.90048
1 23.811 15.7134 10.686
1 24.6047 14.9197 10.686
1 24.5951 15.7245 9.89238
1 23.841 14.9164 9.8984
1 25.3984 15.7134 10.686
1 26.1921 14.9197 10.686
1 26.1708 15.7196 9.89812
1 25.3756 14.9222 9.88791
1 26.9858 15.7134 10.686
1 27.7795 14.9197 10.686
1 27.7622 15.7126 9.91732
1 26.9791 14.8917 9.91304
1 28.5732 15.7134 10.686
1 29.3669 14.9197 10.686
1 29.3079 15.7217 9.85043
1 28.5357 14.9143 9.88875
1 0 14.126 10.686
1 0.793701 13.3323 10.686
1 0.815503 14.1021 9.8631
1 0.0532885 13.3231 9.86369
1 1.5874 14.126 10.686
1 2.3811 13.3323 10.686
1 2.36941 14.1258 9.88812
1 1.60888 13.3359 9.87535
1 3.1748 14.126 10.686
1 3.9685 13.3323 10.686
1 3.98994 14.1157 9.87782
1 3.16509 13.318 9.88458
1 4.7622 14.126 10.686
1 5.5559 13.3323 10.686
1 5.54716 14.1234 9.86259
1 4.7601 13.2991 9.89498
1 6.3496 14.126 10.686
1 7.1433 13.3323 10.686
1 7.14299 14.1368 9.87592
1 6.33477 13.3265 9.8909
1 7.93701 14.126 10.686
1 8.73071 13.3323 10.686
1 8.74462 14.1347 9.88975
1 7.94474 13.3457 9.87961
1 9.52441 14.126 10.686
1 10.3181 13.3323 10.686
1 10.3022 14.1606 9.88664
1 9.5244 13.3307 9.88058
1 11.1118 14.126 10.686
1 11.9055 13.3323 10.686
1 11.9105 14.1206 9.89178
1 11.1119 13.3365 9.87858
1 12.6992 14.126 10.686
1 13.4929 13.3323 10.686
1 13.4876 14.0995 9.88031
1 12.7123 13.333 9.90475
1 14.2866 14.126 10.686
1 15.0803 13.3323 10.686
1 15.0992 14.1174 9.88263
1 14.2961 13.3251 9.89159
1 15.874 14.126 10.686
1 16.6677 13.3323 10.686
1 16.6791 14.129 9.88325
1 15.8801 13.3181 9.87036
1 17.4614 14.126 10.686
1 18.2551 13.3323 10.686
1 18.2492 14.1403 9.90327
1 17.4431 13.3187 9.88157
1 19.0488 14.126 10.686
1 19.8425 13.3323 10.686
1 19.8244 14.1174 9.89426
1 19.0289 13.3397 9.89255
1 20.6362 14.126 10.686
1 21.4299 13.3323 10.686
1 21.4332 14.1177 9.91916
1 20.6405 13.3238 9.89907
1 22.2236 14.126 10.686
1 23.0173 13.3323 10.686
1 23.0195 14.1401 9.8825
1 22.2333 13.3196 9.89745
1 23.811 14.126 10.686
1 24.6047 13.3323 10.686
1 24.5786 14.1429 9.90823
1 23.8061 13.3288 9.89284
1 25.3984 14.126 10.686
1 26.1921 13.3323 10.686
1 26.1754 14.1223 9.90242
1 25.3746 13.353 9.89145
1 26.9858 14.126 10.686
1 27.7795 13.3323 10.686
1 27.7625 14.1154 9.9088
1 26.9684 13.3662 9.90368
1 28.5732 14.126 10.686
1 29.3669 13.3323 10.686
1 29.3079 14.1508 9.88132
1 28.5302 13.3275 9.89231
1 0 12.5386 10.686
1 0.793701 11.7449 10.686
1 0.833828 12.5333 9.89559
1 0.0807529 11.7515 9.85821
1 1.5874 12.5386 10.686
1 2.3811 11.7449 10.686
1 2.37792 12.5497 9.88402
1 1.60184 11.7376 9.89768
1 3.1748 12.5386 10.686
1 3.9685 11.7449 10.686
1 3.9698 12.5399 9.84822
1 3.16918 11.7444 9.87388
1 4.7622 12.5386 10.686
1 5.5559 11.7449 10.686
1 5.56458 12.532 9.87476
1 4.77731 11.7468 9.86736
1 6.3496 12.5386 10.686
1 7.1433 11.7449 10.686
1 7.14843 12.5468 9.90234
1 6.37377 11.72 9.85487
1 7.93701 12.5386 10.686
1 8.73071 11.7449 10.686
1 8.71867 12.5392 9.90346
1 7.95107 11.751 9.88022
1 9.52441 12.5386 10.686
1 10.3181 11.7449 10.686
1 10.3379 12.5306 9.86808
1 9.52466 11.7532 9.89335
1 11.1118 12.5386 10.686
1 11.9055 11.7449 10.686
1 11.9196 12.5393 9.87012
1 11.1193 11.7435 9.89152
1 12.6992 12.5386 10.686
1 13.4929 11.7449 10.686
1 13.4808 12.5399 9.91628
1 12.6741 11.7407 9.87546
1 14.2866 12.5386 10.686
1 15.0803 11.7449 10.686
1 15.0935 12.5311 9.89914
1 14.2875 11.7616 9.89063
1 15.874 12.5386 10.686
1 16.6677 11.7449 10.686
1 16.6746 12.5249 9.90816
1 15.8798 11.7165 9.89212
1 17.4614 12.5386 10.686
1 18.2551 11.7449 10.686
1 18.2649 12.5316 9.8843
1 17.4461 11.7457 9.88159
1 19.0488 12.5386 10.686
1 19.8425 11.7449 10.686
1 19.8323 12.564 9.88425
1 19.0674 11.7509 9.90951
1 20.6362 12.5386 10.686
1 21.4299 11.7449 10.686
1 21.4339 12.5239 9.8979
1 20.6354 11.7445 9.90506
1 22.2236 12.5386 10.686
1 23.0173 11.7449 10.686
1 23.0038 12.5233 9.88413
1 22.218 11.7707 9.89517
1 23.811 12.5386 10.686
1 24.6047 11.7449 10.686
1 24.589 12.5491 9.88596
1 23.796 11.7366 9.88189
1 25.3984 12.5386 10.686
1 26.1921 11.7449 10.686
1 26.1565 12.5386 9.90656
1 25.3986 11.736 9.87567
1 26.9858 12.5386 10.686
1 27.7795 11.7449 10.686
1 27.7408 12.5178 9.91756
1 26.9333 11.731 9.89905
1 28.5732 12.5386 10.686
1 29.3669 11.7449 10.686
1 29.2885 12.5514 9.86676
1 28.5315 11.7198 9.89129
1 0 10.9512 10.686
1 0.793701 10.1575 10.686
1 0.806182 10.9507 9.87398
1 0.081958 10.1443 9.83641
1 1.5874 10.9512 10.686
1 2.3811 10.1575 10.686
1 2.4051 10.9555 9.8795
1 1.61117 10.1605 9.90791
1 3.1748 10.9512 10.686
1 3.9685 10.1575 10.686
1 3.99154 10.9592 9.87019
1 3.1932 10.1626 9.88824
1 4.7622 10.9512 10.686
1 5.5559 10.1575 10.686
1 5.56412 10.9556 9.86244
1 4.75865 10.1586 9.87001
1 6.3496 10.9512 10.686
1 7.1433 10.1575 10.686
1 7.14952 10.9369 9.87972
1 6.34162 10.1677 9.87711
1 7.93701 10.9512 10.686
1 8.73071 10.1575 10.686
1 8.73288 10.9644 9.88553
1 7.91812 10.1532 9.90387
1 9.52441 10.9512 10.686
1 10.3181 10.1575 10.686
1 10.3095 10.9567 9.89128
1 9.51584 10.1598 9.88954
1 11.1118 10.9512 10.686
1 11.9055 10.1575 10.686
1 11.9335 10.9427 9.87976
1 11.0964 10.1641 9.90741
1 12.6992 10.9512 10.686
1 13.4929 10.1575 10.686
1 13.4938 10.9416 9.89366
1 12.681 10.1289 9.8734
1 14.2866 10.9512 10.686
1 15.0803 10.1575 10.686
1 15.0727 10.9492 9.89469
1 14.2967 10.1525 9.87518
1 15.874 10.9512 10.686
1 16.6677 10.1575 10.686
1 16.6931 10.9519 9.88924
1 15.8676 10.1824 9.87729
1 17.4614 10.9512 10.686
1 18.2551 10.1575 10.686
1 18.2508 10.9722 9.91111
1 17.4567 10.1774 9.89262
1 19.0488 10.9512 10.686
1 19.8425 10.1575 10.686
1 19.8309 10.9328 9.88031
1 19.0487 10.1688 9.89332
1 20.6362 10.9512 10.686
1 21.4299 10.1575 10.686
1 21.4187 10.98 9.89453
1 20.6361 10.1712 9.86668
1 22.2236 10.9512 10.686
1 23.0173 10.1575 10.686
1 23.0028 10.9684 9.89289
1 22.2274 10.1923 9.887
1 23.811 10.9512 10.686
1 24.6047 10.1575 10.686
1 24.5897 10.9422 9.86885
1 23.8024 10.1702 9.88427
1 25.3984 10.9512 10.686
1 26.1921 10.1575 10.686
1 26.1795 10.9478 9.8895
1 25.3818 10.1497 9.89916
1 26.9858 10.9512 10.686
1 27.7795 10.1575 10.686
1 27.762 10.9525 9.9063
1 26.9544 10.1286 9.91578
1 28.5732 10.9512 10.686
1 29.3669 10.1575 10.686
1 29.3083 10.9458 9.8654
1 28.5214 10.1423 9.86841
1 0 9.36379 10.686
1 0.793701 8.57009 10.686
1 0.834818 9.33743 9.86931
1 0.0741106 8.5936 9.86783
1 1.5874 9.36379 10.686
1 2.3811 8.57009 10.686
1 2.39748 9.36561 9.87342
1 1.59172 8.57572 9.89736
1 3.1748 9.36379 10.686
1 3.9685 8.57009 10.686
1 3.96277 9.36727 9.92943
1 3.19064 8.5498 9.91869
1 4.7622 9.36379 10.686
1 5.5559 8.57009 10.686
1 5.5732 9.3424 9.91976
1 4.76918 8.56038 9.87941
1 6.3496 9.36379 10.686
1 7.1433 8.57009 10.686
1 7.12014 9.3728 9.88719
1 6.36257 8.55389 9.88983
1 7.93701 9.36379 10.686
1 8.73071 8.57009 10.686
1 8.73275 9.38862 9.88537
1 7.9393 8.55869 9.871
1 9.52441 9.36379 10.686
1 10.3181 8.57009 10.686
1 10.3038 9.36872 9.88167
1 9.49158 8.5813 9.88782
1 11.1118 9.36379 10.686
1 11.9055 8.57009 10.686
1 11.8809 9.3603 9.91434
1 11.0974 8.56462 9.89548
1 12.6992 9.36379 10.686
1 13.4929 8.57009 10.686
1 13.5112 9.3899 9.93918
1 12.6904 8.5872 9.91351
1 14.2866 9.36379 10.686
1 15.0803 8.57009 10.686
1 15.082 9.3593 9.87996
1 14.2935 8.54303 9.91278
1 15.874 9.36379 10.686
1 16.6677 8.57009 10.686
1 16.6917 9.38092 9.90765
1 15.886 8.56377 9.91034
1 17.4614 9.36379 10.686
1 18.2551 8.57009 10.686
1 18.2336 9.3656 9.87112
1 17.4568 8.56973 9.87694
1 19.0488 9.36379 10.686
1 19.8425 8.57009 10.686
1 19.8534 9.35144 9.88537
1 19.0496 8.55354 9.89325
1 20.6362 9.36379 10.686
1 21.4299 8.57009 10.686
1 21.424 9.37218 9.90226
1 20.6212 8.58093 9.90248
1 22.2236 9.36379 10.686
1 23.0173 8.57009 10.686
1 23.0029 9.36016 9.87295
1 22.218 8.59133 9.90439
1 23.811 9.36379 10.686
1 24.6047 8.57009 10.686
1 24.5822 9.38189 9.89477
1 23.8029 8.58213 9.89694
1 25.3984 9.36379 10.686
1 26.1921 8.57009 10.686
1 26.2133 9.3584 9.88353
1 25.398 8.56583 9.91003
1 26.9858 9.36379 10.686
1 27.7795 8.57009 10.686
1 27.7784 9.34715 9.89184
1 26.993 8.56956 9.88859
1 28.5732 9.36379 10.686
1 29.3669 8.57009 10.686
1 29.3094 9.38729 9.87537
1 28.5511 8.57242 9.87252
1 0 7.77639 10.686
1 0.793701 6.98268 10.686
1 0.845431 7.78844 9.86867
1 0.0863474 6.98714 9.84637
1 1.5874 7.77639 10.686
1 2.3811 6.98268 10.686
1 2.38206 7.75905 9.88577
1 1.60567 6.97673 9.87994
1 3.1748 7.77639 10.686
1 3.9685 6.98268 10.686
1 3.98348 7.77544 9.91675
1 3.1628 6.95521 9.90029
1 4.7622 7.77639 10.686
1 5.5559 6.98268 10.686
1 5.56086 7.76324 9.88242
1 4.74827 6.98549 9.8848
1 6.3496 7.77639 10.686
1 7.1433 6.98268 10.686
1 7.14707 7.78358 9.88509
1 6.36852 6.97365 9.90394
1 7.93701 7.77639 10.686
1 8.73071 6.98268 10.686
1 8.73857 7.77618 9.88404
1 7.96449 6.98318 9.91194
1 9.52441 7.77639 10.686
1 10.3181 6.98268 10.686
1 10.3238 7.78371 9.88575
1 9.52697 6.98275 9.89303
1 11.1118 7.77639 10.686
1 11.9055 6.98268 10.686
1 11.9044 7.78385 9.90959
1 11.1213 6.99799 9.90685
1 12.6992 7.77639 10.686
1 13.4929 6.98268 10.686
1 13.4908 7.78206 9.88017
1 12.6881 6.98764 9.89399
1 14.2866 7.77639 10.686
1 15.0803 6.98268 10.686
1 15.0636 7.76827 9.8853
1 14.2857 6.96813 9.89025
1 15.874 7.77639 10.686
1 16.6677 6.98268 10.686
1 16.6727 7.75935 9.90626
1 15.871 7.00426 9.89206
1 17.4614 7.77639 10.686
1 18.2551 6.98268 10.686
1 18.2614 7.80104 9.90908
1 17.4755 7.00631 9.88972
1 19.0488 7.77639 10.686
1 19.8425 6.98268 10.686
1 19.8391 7.76101 9.8987
1 19.0312 6.98397 9.91065
1 20.6362 7.77639 10.686
1 21.4299 6.98268 10.686
1 21.4268 7.76717 9.90785
1 20.6328 6.96645 9.88881
1 22.2236 7.77639 10.686
1 23.0173 6.98268 10.686
1 23.0063 7.77852 9.89056
1 22.2039 6.9721 9.86881
1 23.811 7.77639 10.686
1 24.6047 6.98268 10.686
1 24.5988 7.78929 9.89987
1 23.8222 6.97377 9.91096
1 25.3984 7.77639 10.686
1 26.1921 6.98268 10.686
1 26.1707 7.78312 9.89851
1 25.3912 6.99108 9.88344
1 26.9858 7.77639 10.686
1 27.7795 6.98268 10.686
1 27.7646 7.78567 9.92163
1 26.9645 6.98873 9.88214
1 28.5732 7.77639 10.686
1 29.3669 6.98268 10.686
1 29.3139 7.78621 9.86673
1 28.5594 6.98135 9.86669
1 0 6.18898 10.686
1 0.793701 5.39528 10.686
1 0.807212 6.16479 9.86419
1 0.0555993 5.42091 9.86103
1 1.5874 6.18898 10.686
1 2.3811 5.39528 10.686
1 2.4089 6.15876 9.8951
1 1.59178 5.39997 9.87278
1 3.1748 6.18898 10.686
1 3.9685 5.39528 10.686
1 3.95051 6.16764 9.872
1 3.20909 5.39741 9.89949
1 4.7622 6.18898 10.686
1 5.5559 5.39528 10.686
1 5.55152 6.1876 9.90436
1 4.7525 5.41436 9.87223
1 6.3496 6.18898 10.686
1 7.1433 5.39528 10.686
1 7.14127 6.21574 9.88937
1 6.34302 5.39574 9.88395
1 7.93701 6.18898 10.686
1 8.73071 5.39528 10.686
1 8.76821 6.18108 9.87704
1 7.91773 5.39873 9.89384
1 9.52441 6.18898 10.686
1 10.3181 5.39528 10.686
1 10.3144 6.20392 9.89144
1 9.49929 5.41321 9.87578
1 11.1118 6.18898 10.686
1 11.9055 5.39528 10.686
1 11.8998 6.19157 9.9025
1 11.1063 5.40832 9.87039
1 12.6992 6.18898 10.686
1 13.4929 5.39528 10.686
1 13.4946 6.21062 9.90875
1 12.7138 5.3828 9.90877
1 14.2866 6.18898 10.686
1 15.0803 5.39528 10.686
1 15.0892 6.19872 9.89221
1 14.3035 5.38809 9.91009
1 15.874 6.18898 10.686
1 16.6677 5.39528 10.686
1 16.6715 6.18851 9.8773
1 15.8875 5.39822 9.89536
1 17.4614 6.18898 10.686
1 18.2551 5.39528 10.686
1 18.2717 6.19864 9.87052
1 17.4596 5.40565 9.89107