9376
Atoms. Timestep: 4000000
1 1.53131e-09 3.55271e-15 11.7199
1 0.793701 29.2063 11.7199
1 0.819307 29.9135 10.8738
1 0.0763489 29.1822 10.8841
1 1.5874 3.55271e-15 11.7199
1 2.3811 29.2063 11.7199
1 2.39871 29.9235 10.9113
1 1.61475 29.1797 10.9039
1 3.1748 3.55271e-15 11.7199
1 3.9685 29.2063 11.7199
1 3.97702 29.94 10.8668
1 3.20016 29.1934 10.9356
1 4.7622 3.55271e-15 11.7199
1 5.5559 29.2063 11.7199
1 5.58494 29.9224 10.8879
1 4.75952 29.1705 10.9337
1 6.3496 3.55271e-15 11.7199
1 7.1433 29.2063 11.7199
1 7.16723 29.9209 10.8789
1 6.33249 29.1899 10.9445
1 7.93701 3.55271e-15 11.7199
1 8.73071 29.2063 11.7199
1 8.75647 29.9417 10.8984
1 7.94334 29.2046 10.9299
1 9.52441 3.55271e-15 11.7199
1 10.3181 29.2063 11.7199
1 10.3475 29.9325 10.8918
1 9.54894 29.1723 10.9058
1 11.1118 3.55271e-15 11.7199
1 11.9055 29.2063 11.7199
1 11.912 29.9308 10.9109
1 11.1193 29.1556 10.9262
1 12.6992 3.55271e-15 11.7199
1 13.4929 29.2063 11.7199
1 13.47 29.9314 10.8782
1 12.6974 29.1819 10.9304
1 14.2866 3.55271e-15 11.7199
1 15.0803 29.2063 11.7199
1 15.0778 29.9271 10.877
1 14.2784 29.1997 10.8953
1 15.874 3.55271e-15 11.7199
1 16.6677 29.2063 11.7199
1 16.6693 29.9529 10.9012
1 15.8757 29.1773 10.9193
1 17.4614 3.55271e-15 11.7199
1 18.2551 29.2063 11.7199
1 18.2686 29.9475 10.8883
1 17.4678 29.1753 10.9305
1 19.0488 3.55271e-15 11.7199
1 19.8425 29.2063 11.7199
1 19.8397 29.9187 10.8726
1 19.0489 29.1544 10.8924
1 20.6362 3.55271e-15 11.7199
1 21.4299 29.2063 11.7199
1 21.4138 29.9276 10.8992
1 20.627 29.1614 10.9312
1 22.2236 3.55271e-15 11.7199
1 23.0173 29.2063 11.7199
1 23.0035 29.9177 10.8828
1 22.212 29.1831 10.9017
1 23.811 3.55271e-15 11.7199
1 24.6047 29.2063 11.7199
1 24.596 29.9267 10.9049
1 23.7911 29.1722 10.9064
1 25.3984 3.55271e-15 11.7199
1 26.1921 29.2063 11.7199
1 26.1733 29.9393 10.9075
1 25.4023 29.2065 10.9281
1 26.9858 3.55271e-15 11.7199
1 27.7795 29.2063 11.7199
1 27.7521 29.9292 10.8733
1 26.9753 29.1912 10.9195
1 28.5732 3.55271e-15 11.7199
1 29.3669 29.2063 11.7199
1 29.3203 29.9494 10.8479
1 28.531 29.1738 10.9087
1 1.53131e-09 28.4126 11.7199
1 0.793701 27.6189 11.7199
1 0.83522 28.404 10.8841
1 0.0526594 27.6259 10.8944
1 1.5874 28.4126 11.7199
1 2.3811 27.6189 11.7199
1 2.38945 28.3853 10.9325
1 1.59185 27.579 10.9014
1 3.1748 28.4126 11.7199
1 3.9685 27.6189 11.7199
1 3.96793 28.404 10.9152
1 3.19008 27.6093 10.9347
1 4.7622 28.4126 11.7199
1 5.5559 27.6189 11.7199
1 5.55737 28.3874 10.9332
1 4.75418 27.6395 10.9305
1 6.3496 28.4126 11.7199
1 7.1433 27.6189 11.7199
1 7.15906 28.405 10.9277
1 6.36406 27.6168 10.9307
1 7.93701 28.4126 11.7199
1 8.73071 27.6189 11.7199
1 8.72852 28.3948 10.927
1 7.92629 27.6117 10.9314
1 9.52441 28.4126 11.7199
1 10.3181 27.6189 11.7199
1 10.3309 28.391 10.9485
1 9.53762 27.6086 10.9592
1 11.1118 28.4126 11.7199
1 11.9055 27.6189 11.7199
1 11.8981 28.3973 10.9202
1 11.103 27.6032 10.9584
1 12.6992 28.4126 11.7199
1 13.4929 27.6189 11.7199
1 13.4815 28.3869 10.9185
1 12.6929 27.6061 10.9403
1 14.2866 28.4126 11.7199
1 15.0803 27.6189 11.7199
1 15.0948 28.4147 10.9089
1 14.2998 27.5896 10.9471
1 15.874 28.4126 11.7199
1 16.6677 27.6189 11.7199
1 16.6757 28.3884 10.8959
1 15.8722 27.6065 10.9179
1 17.4614 28.4126 11.7199
1 18.2551 27.6189 11.7199
1 18.2546 28.3939 10.9161
1 17.4828 27.6009 10.9419
1 19.0488 28.4126 11.7199
1 19.8425 27.6189 11.7199
1 19.8404 28.4153 10.9106
1 19.049 27.6094 10.9117
1 20.6362 28.4126 11.7199
1 21.4299 27.6189 11.7199
1 21.4314 28.3745 10.9167
1 20.6324 27.6068 10.9283
1 22.2236 28.4126 11.7199
1 23.0173 27.6189 11.7199
1 23.0197 28.399 10.9185
1 22.228 27.5973 10.9184
1 23.811 28.4126 11.7199
1 24.6047 27.6189 11.7199
1 24.5996 28.3801 10.939
1 23.7933 27.5917 10.9364
1 25.3984 28.4126 11.7199
1 26.1921 27.6189 11.7199
1 26.1955 28.3711 10.944
1 25.4089 27.5966 10.9238
1 26.9858 28.4126 11.7199
1 27.7795 27.6189 11.7199
1 27.752 28.4076 10.946
1 27.0005 27.6027 10.94
1 28.5732 28.4126 11.7199
1 29.3669 27.6189 11.7199
1 29.2739 28.4011 10.9191
1 28.544 27.6415 10.9027
1 1.53131e-09 26.8252 11.7199
1 0.793701 26.0315 11.7199
1 0.813547 26.7997 10.9071
1 0.0501368 26.0448 10.8825
1 1.5874 26.8252 11.7199
1 2.3811 26.0315 11.7199
1 2.39079 26.8087 10.915
1 1.59926 26.0275 10.9216
1 3.1748 26.8252 11.7199
1 3.9685 26.0315 11.7199
1 3.96179 26.8517 10.9082
1 3.1875 26.036 10.9608
1 4.7622 26.8252 11.7199
1 5.5559 26.0315 11.7199
1 5.54077 26.8354 10.96
1 4.7559 26.0578 10.9344
1 6.3496 26.8252 11.7199
1 7.1433 26.0315 11.7199
1 7.16825 26.829 10.9332
1 6.37595 26.0346 10.9465
1 7.93701 26.8252 11.7199
1 8.73071 26.0315 11.7199
1 8.73579 26.835 10.9312
1 7.93001 26.0304 10.9116
1 9.52441 26.8252 11.7199
1 10.3181 26.0315 11.7199
1 10.3348 26.8169 10.929
1 9.52297 26.0521 10.9013
1 11.1118 26.8252 11.7199
1 11.9055 26.0315 11.7199
1 11.9187 26.8132 10.9216
1 11.1115 26.032 10.921
1 12.6992 26.8252 11.7199
1 13.4929 26.0315 11.7199
1 13.4918 26.8076 10.9234
1 12.7137 26.0109 10.9294
1 14.2866 26.8252 11.7199
1 15.0803 26.0315 11.7199
1 15.091 26.8189 10.932
1 14.3136 26.0241 10.9427
1 15.874 26.8252 11.7199
1 16.6677 26.0315 11.7199
1 16.6616 26.8188 10.9233
1 15.8707 26.0178 10.9219
1 17.4614 26.8252 11.7199
1 18.2551 26.0315 11.7199
1 18.2786 26.8148 10.9334
1 17.451 26.0358 10.9254
1 19.0488 26.8252 11.7199
1 19.8425 26.0315 11.7199
1 19.8571 26.8222 10.9333
1 19.0567 25.9968 10.9182
1 20.6362 26.8252 11.7199
1 21.4299 26.0315 11.7199
1 21.4282 26.813 10.9139
1 20.6395 26.0041 10.9424
1 22.2236 26.8252 11.7199
1 23.0173 26.0315 11.7199
1 23.0066 26.8161 10.9519
1 22.2014 26.0446 10.914
1 23.811 26.8252 11.7199
1 24.6047 26.0315 11.7199
1 24.6114 26.8119 10.955
1 23.8002 26.0304 10.9149
1 25.3984 26.8252 11.7199
1 26.1921 26.0315 11.7199
1 26.2003 26.8028 10.9434
1 25.4173 26.0254 10.9149
1 26.9858 26.8252 11.7199
1 27.7795 26.0315 11.7199
1 27.7695 26.8091 10.9156
1 26.99 26.0195 10.9191
1 28.5732 26.8252 11.7199
1 29.3669 26.0315 11.7199
1 29.2887 26.8054 10.8795
1 28.5672 26.0203 10.9375
1 1.53131e-09 25.2378 11.7199
1 0.793701 24.4441 11.7199
1 0.805778 25.2586 10.9284
1 0.0374811 24.447 10.9004
1 1.5874 25.2378 11.7199
1 2.3811 24.4441 11.7199
1 2.37303 25.2292 10.9155
1 1.60959 24.4274 10.9067
1 3.1748 25.2378 11.7199
1 3.9685 24.4441 11.7199
1 3.96344 25.253 10.922
1 3.17146 24.4278 10.9036
1 4.7622 25.2378 11.7199
1 5.5559 24.4441 11.7199
1 5.56708 25.2325 10.9279
1 4.75168 24.4268 10.9416
1 6.3496 25.2378 11.7199
1 7.1433 24.4441 11.7199
1 7.15165 25.249 10.9343
1 6.34559 24.4379 10.917
1 7.93701 25.2378 11.7199
1 8.73071 24.4441 11.7199
1 8.72057 25.2435 10.914
1 7.91826 24.4579 10.9354
1 9.52441 25.2378 11.7199
1 10.3181 24.4441 11.7199
1 10.3277 25.2439 10.9035
1 9.53897 24.4426 10.9251
1 11.1118 25.2378 11.7199
1 11.9055 24.4441 11.7199
1 11.912 25.2419 10.9147
1 11.1294 24.4518 10.9299
1 12.6992 25.2378 11.7199
1 13.4929 24.4441 11.7199
1 13.519 25.2281 10.9318
1 12.702 24.4447 10.919
1 14.2866 25.2378 11.7199
1 15.0803 24.4441 11.7199
1 15.0894 25.2262 10.9155
1 14.286 24.427 10.945
1 15.874 25.2378 11.7199
1 16.6677 24.4441 11.7199
1 16.6652 25.2354 10.9388
1 15.9029 24.4153 10.9553
1 17.4614 25.2378 11.7199
1 18.2551 24.4441 11.7199
1 18.2575 25.2247 10.9392
1 17.453 24.4195 10.9121
1 19.0488 25.2378 11.7199
1 19.8425 24.4441 11.7199
1 19.8473 25.2347 10.9337
1 19.0369 24.4425 10.9127
1 20.6362 25.2378 11.7199
1 21.4299 24.4441 11.7199
1 21.4687 25.2465 10.921
1 20.6497 24.4583 10.9576
1 22.2236 25.2378 11.7199
1 23.0173 24.4441 11.7199
1 23.0051 25.2414 10.9498
1 22.2333 24.4288 10.9173
1 23.811 25.2378 11.7199
1 24.6047 24.4441 11.7199
1 24.5783 25.2376 10.924
1 23.7954 24.4474 10.9252
1 25.3984 25.2378 11.7199
1 26.1921 24.4441 11.7199
1 26.1939 25.2133 10.9014
1 25.3723 24.4268 10.9166
1 26.9858 25.2378 11.7199
1 27.7795 24.4441 11.7199
1 27.7859 25.2431 10.94
1 26.9849 24.4271 10.8979
1 28.5732 25.2378 11.7199
1 29.3669 24.4441 11.7199
1 29.2982 25.2574 10.8695
1 28.5456 24.4636 10.9093
1 1.53131e-09 23.6504 11.7199
1 0.793701 22.8567 11.7199
1 0.816084 23.6668 10.9123
1 0.0855128 22.858 10.9119
1 1.5874 23.6504 11.7199
1 2.3811 22.8567 11.7199
1 2.38735 23.6411 10.9025
1 1.6217 22.8536 10.938
1 3.1748 23.6504 11.7199
1 3.9685 22.8567 11.7199
1 3.97006 23.6505 10.923
1 3.18168 22.8662 10.9156
1 4.7622 23.6504 11.7199
1 5.5559 22.8567 11.7199
1 5.56415 23.6276 10.9297
1 4.73976 22.8518 10.9463
1 6.3496 23.6504 11.7199
1 7.1433 22.8567 11.7199
1 7.15363 23.6722 10.9456
1 6.36276 22.8618 10.9281
1 7.93701 23.6504 11.7199
1 8.73071 22.8567 11.7199
1 8.72318 23.6604 10.9218
1 7.93395 22.8529 10.9383
1 9.52441 23.6504 11.7199
1 10.3181 22.8567 11.7199
1 10.2961 23.6508 10.913
1 9.53862 22.8649 10.9372
1 11.1118 23.6504 11.7199
1 11.9055 22.8567 11.7199
1 11.9435 23.6397 10.9391
1 11.0917 22.8695 10.9202
1 12.6992 23.6504 11.7199
1 13.4929 22.8567 11.7199
1 13.4961 23.6463 10.9419
1 12.6956 22.8685 10.9371
1 14.2866 23.6504 11.7199
1 15.0803 22.8567 11.7199
1 15.0953 23.6597 10.9195
1 14.3111 22.8877 10.9399
1 15.874 23.6504 11.7199
1 16.6677 22.8567 11.7199
1 16.6773 23.6318 10.9118
1 15.8868 22.8485 10.9386
1 17.4614 23.6504 11.7199
1 18.2551 22.8567 11.7199
1 18.2737 23.6308 10.9465
1 17.4662 22.8495 10.9266
1 19.0488 23.6504 11.7199
1 19.8425 22.8567 11.7199
1 19.8494 23.6537 10.9209
1 19.069 22.8489 10.9288
1 20.6362 23.6504 11.7199
1 21.4299 22.8567 11.7199
1 21.4081 23.64 10.927
1 20.6307 22.8536 10.9283
1 22.2236 23.6504 11.7199
1 23.0173 22.8567 11.7199
1 22.9908 23.6507 10.9232
1 22.2074 22.8398 10.9405
1 23.811 23.6504 11.7199
1 24.6047 22.8567 11.7199
1 24.5902 23.6356 10.9549
1 23.7599 22.8608 10.952
1 25.3984 23.6504 11.7199
1 26.1921 22.8567 11.7199
1 26.1953 23.6596 10.9108
1 25.3598 22.8514 10.9153
1 26.9858 23.6504 11.7199
1 27.7795 22.8567 11.7199
1 27.7657 23.6541 10.918
1 26.98 22.8637 10.9082
1 28.5732 23.6504 11.7199
1 29.3669 22.8567 11.7199
1 29.3307 23.652 10.896
1 28.5512 22.8549 10.9079
1 1.53131e-09 22.063 11.7199
1 0.793701 21.2693 11.7199
1 0.828698 22.0505 10.9253
1 0.0834632 21.2559 10.8981
1 1.5874 22.063 11.7199
1 2.3811 21.2693 11.7199
1 2.40039 22.0609 10.8963
1 1.63587 21.2559 10.9238
1 3.1748 22.063 11.7199
1 3.9685 21.2693 11.7199
1 3.96516 22.0537 10.9316
1 3.18873 21.2817 10.9203
1 4.7622 22.063 11.7199
1 5.5559 21.2693 11.7199
1 5.57321 22.0812 10.922
1 4.77672 21.2829 10.9187
1 6.3496 22.063 11.7199
1 7.1433 21.2693 11.7199
1 7.16142 22.0833 10.9383
1 6.37946 21.2678 10.9452
1 7.93701 22.063 11.7199
1 8.73071 21.2693 11.7199
1 8.72534 22.0655 10.9191
1 7.95708 21.2516 10.9358
1 9.52441 22.063 11.7199
1 10.3181 21.2693 11.7199
1 10.3312 22.0671 10.932
1 9.52492 21.2679 10.9153
1 11.1118 22.063 11.7199
1 11.9055 21.2693 11.7199
1 11.9181 22.0596 10.9241
1 11.13 21.2549 10.9391
1 12.6992 22.063 11.7199
1 13.4929 21.2693 11.7199
1 13.506 22.0701 10.9346
1 12.7004 21.262 10.9173
1 14.2866 22.063 11.7199
1 15.0803 21.2693 11.7199
1 15.0869 22.0776 10.9485
1 14.2794 21.2547 10.9326
1 15.874 22.063 11.7199
1 16.6677 21.2693 11.7199
1 16.6793 22.083 10.9194
1 15.8779 21.2753 10.9286
1 17.4614 22.063 11.7199
1 18.2551 21.2693 11.7199
1 18.2559 22.0514 10.9336
1 17.4181 21.2877 10.9386
1 19.0488 22.063 11.7199
1 19.8425 21.2693 11.7199
1 19.8604 22.0517 10.939
1 19.057 21.2752 10.9298
1 20.6362 22.063 11.7199
1 21.4299 21.2693 11.7199
1 21.4211 22.0583 10.94
1 20.6756 21.2436 10.9175
1 22.2236 22.063 11.7199
1 23.0173 21.2693 11.7199
1 22.992 22.0502 10.9086
1 22.2037 21.2397 10.9455
1 23.811 22.063 11.7199
1 24.6047 21.2693 11.7199
1 24.5821 22.0785 10.9255
1 23.8097 21.2355 10.9255
1 25.3984 22.063 11.7199
1 26.1921 21.2693 11.7199
1 26.1909 22.0785 10.9271
1 25.3974 21.2763 10.9151
1 26.9858 22.063 11.7199
1 27.7795 21.2693 11.7199
1 27.7637 22.06 10.9201
1 26.9613 21.2814 10.9242
1 28.5732 22.063 11.7199
1 29.3669 21.2693 11.7199
1 29.2983 22.0484 10.8879
1 28.5109 21.259 10.8969
1 1.53131e-09 20.4756 11.7199
1 0.793701 19.6819 11.7199
1 0.829693 20.4787 10.9049
1 0.066288 19.6927 10.892
1 1.5874 20.4756 11.7199
1 2.3811 19.6819 11.7199
1 2.36892 20.4817 10.9075
1 1.57977 19.6822 10.9038
1 3.1748 20.4756 11.7199
1 3.9685 19.6819 11.7199
1 3.96033 20.4848 10.9248
1 3.19482 19.6967 10.927
1 4.7622 20.4756 11.7199
1 5.5559 19.6819 11.7199
1 5.55289 20.4735 10.9372
1 4.75033 19.6569 10.9389
1 6.3496 20.4756 11.7199
1 7.1433 19.6819 11.7199
1 7.13601 20.4572 10.9343
1 6.35899 19.6622 10.9307
1 7.93701 20.4756 11.7199
1 8.73071 19.6819 11.7199
1 8.74858 20.4682 10.9273
1 7.93509 19.6852 10.9152
1 9.52441 20.4756 11.7199
1 10.3181 19.6819 11.7199
1 10.3213 20.4756 10.9326
1 9.53569 19.6805 10.9193
1 11.1118 20.4756 11.7199
1 11.9055 19.6819 11.7199
1 11.9137 20.4786 10.9422
1 11.1043 19.6708 10.9481
1 12.6992 20.4756 11.7199
1 13.4929 19.6819 11.7199
1 13.4952 20.4636 10.9222
1 12.7031 19.6704 10.9348
1 14.2866 20.4756 11.7199
1 15.0803 19.6819 11.7199
1 15.078 20.4777 10.8941
1 14.2941 19.6933 10.9318
1 15.874 20.4756 11.7199
1 16.6677 19.6819 11.7199
1 16.701 20.4607 10.9576
1 15.8784 19.6834 10.9119
1 17.4614 20.4756 11.7199
1 18.2551 19.6819 11.7199
1 18.2604 20.4954 10.9002
1 17.4763 19.6903 10.9093
1 19.0488 20.4756 11.7199
1 19.8425 19.6819 11.7199
1 19.8563 20.4617 10.9397
1 19.025 19.6618 10.9367
1 20.6362 20.4756 11.7199
1 21.4299 19.6819 11.7199
1 21.4292 20.4561 10.9336
1 20.6569 19.6824 10.9314
1 22.2236 20.4756 11.7199
1 23.0173 19.6819 11.7199
1 23.0013 20.4596 10.9271
1 22.2434 19.6644 10.9047
1 23.811 20.4756 11.7199
1 24.6047 19.6819 11.7199
1 24.6113 20.4777 10.9361
1 23.8054 19.682 10.9209
1 25.3984 20.4756 11.7199
1 26.1921 19.6819 11.7199
1 26.1514 20.4673 10.9176
1 25.3789 19.7114 10.9402
1 26.9858 20.4756 11.7199
1 27.7795 19.6819 11.7199
1 27.7448 20.4924 10.9373
1 26.9713 19.6866 10.9404
1 28.5732 20.4756 11.7199
1 29.3669 19.6819 11.7199
1 29.2961 20.4649 10.9059
1 28.5486 19.6632 10.9509
1 1.53131e-09 18.8882 11.7199
1 0.793701 18.0945 11.7199
1 0.814358 18.8819 10.9443
1 0.0631094 18.0946 10.8969
1 1.5874 18.8882 11.7199
1 2.3811 18.0945 11.7199
1 2.42125 18.8978 10.9173
1 1.62404 18.0867 10.905
1 3.1748 18.8882 11.7199
1 3.9685 18.0945 11.7199
1 3.94918 18.8784 10.9123
1 3.16612 18.1022 10.9127
1 4.7622 18.8882 11.7199
1 5.5559 18.0945 11.7199
1 5.56175 18.8771 10.9216
1 4.76356 18.1048 10.9453
1 6.3496 18.8882 11.7199
1 7.1433 18.0945 11.7199
1 7.15397 18.9077 10.9384
1 6.36833 18.1096 10.9356
1 7.93701 18.8882 11.7199
1 8.73071 18.0945 11.7199
1 8.74733 18.8919 10.9291
1 7.95907 18.1045 10.9122
1 9.52441 18.8882 11.7199
1 10.3181 18.0945 11.7199
1 10.3104 18.9052 10.9264
1 9.52728 18.1126 10.9281
1 11.1118 18.8882 11.7199
1 11.9055 18.0945 11.7199
1 11.8894 18.8923 10.9425
1 11.1123 18.0826 10.9054
1 12.6992 18.8882 11.7199
1 13.4929 18.0945 11.7199
1 13.5012 18.8932 10.9423
1 12.6832 18.1181 10.9426
1 14.2866 18.8882 11.7199
1 15.0803 18.0945 11.7199
1 15.0837 18.8635 10.9355
1 14.2905 18.0842 10.9249
1 15.874 18.8882 11.7199
1 16.6677 18.0945 11.7199
1 16.6915 18.9092 10.9143
1 15.8758 18.0956 10.9267
1 17.4614 18.8882 11.7199
1 18.2551 18.0945 11.7199
1 18.2493 18.8814 10.8797
1 17.4592 18.0804 10.9255
1 19.0488 18.8882 11.7199
1 19.8425 18.0945 11.7199
1 19.8466 18.8744 10.9354
1 19.0419 18.0949 10.9
1 20.6362 18.8882 11.7199
1 21.4299 18.0945 11.7199
1 21.4332 18.8815 10.9211
1 20.6454 18.1199 10.936
1 22.2236 18.8882 11.7199
1 23.0173 18.0945 11.7199
1 23.0168 18.8881 10.929
1 22.2296 18.08 10.9036
1 23.811 18.8882 11.7199
1 24.6047 18.0945 11.7199
1 24.5847 18.9211 10.9083
1 23.8225 18.1017 10.9097
1 25.3984 18.8882 11.7199
1 26.1921 18.0945 11.7199
1 26.1597 18.8945 10.9342
1 25.3404 18.0944 10.923
1 26.9858 18.8882 11.7199
1 27.7795 18.0945 11.7199
1 27.7921 18.9036 10.8883
1 26.9719 18.0892 10.9438
1 28.5732 18.8882 11.7199
1 29.3669 18.0945 11.7199
1 29.2914 18.9064 10.8614
1 28.5457 18.0835 10.918
1 1.53131e-09 17.3008 11.7199
1 0.793701 16.5071 11.7199
1 0.835306 17.2958 10.9033
1 0.0972061 16.5204 10.8861
1 1.5874 17.3008 11.7199
1 2.3811 16.5071 11.7199
1 2.41029 17.3014 10.8936
1 1.63195 16.5146 10.9309
1 3.1748 17.3008 11.7199
1 3.9685 16.5071 11.7199
1 3.98777 17.3247 10.9468
1 3.19565 16.5157 10.8966
1 4.7622 17.3008 11.7199
1 5.5559 16.5071 11.7199
1 5.57542 17.3236 10.9422
1 4.786 16.4876 10.9193
1 6.3496 17.3008 11.7199
1 7.1433 16.5071 11.7199
1 7.15922 17.2975 10.9357
1 6.37039 16.5072 10.949
1 7.93701 17.3008 11.7199
1 8.73071 16.5071 11.7199
1 8.75804 17.3333 10.9037
1 7.93078 16.4976 10.929
1 9.52441 17.3008 11.7199
1 10.3181 16.5071 11.7199
1 10.3202 17.3264 10.9248
1 9.5368 16.5305 10.9354
1 11.1118 17.3008 11.7199
1 11.9055 16.5071 11.7199
1 11.9117 17.303 10.9392
1 11.1229 16.502 10.9214
1 12.6992 17.3008 11.7199
1 13.4929 16.5071 11.7199
1 13.4728 17.3044 10.9371
1 12.6951 16.515 10.9211
1 14.2866 17.3008 11.7199
1 15.0803 16.5071 11.7199
1 15.1029 17.2932 10.9189
1 14.287 16.5093 10.9234
1 15.874 17.3008 11.7199
1 16.6677 16.5071 11.7199
1 16.6712 17.316 10.9277
1 15.9031 16.5175 10.935
1 17.4614 17.3008 11.7199
1 18.2551 16.5071 11.7199
1 18.2538 17.3446 10.9216
1 17.4727 16.5089 10.943
1 19.0488 17.3008 11.7199
1 19.8425 16.5071 11.7199
1 19.8506 17.3024 10.9203
1 19.0491 16.5041 10.9107
1 20.6362 17.3008 11.7199
1 21.4299 16.5071 11.7199
1 21.4457 17.2781 10.9375
1 20.6393 16.4767 10.9358
1 22.2236 17.3008 11.7199
1 23.0173 16.5071 11.7199
1 23.0279 17.3138 10.9342
1 22.2341 16.4965 10.9242
1 23.811 17.3008 11.7199
1 24.6047 16.5071 11.7199
1 24.5999 17.2906 10.9532
1 23.7918 16.5186 10.9154
1 25.3984 17.3008 11.7199
1 26.1921 16.5071 11.7199
1 26.1603 17.2842 10.9562
1 25.4007 16.4878 10.9286
1 26.9858 17.3008 11.7199
1 27.7795 16.5071 11.7199
1 27.7759 17.2981 10.9288
1 26.9635 16.5296 10.9182
1 28.5732 17.3008 11.7199
1 29.3669 16.5071 11.7199
1 29.306 17.2813 10.9013
1 28.5537 16.491 10.9286
1 1.53131e-09 15.7134 11.7199
1 0.793701 14.9197 11.7199
1 0.849274 15.7158 10.9235
1 0.0820195 14.9191 10.9039
1 1.5874 15.7134 11.7199
1 2.3811 14.9197 11.7199
1 2.39206 15.7258 10.9193
1 1.59916 14.9263 10.9144
1 3.1748 15.7134 11.7199
1 3.9685 14.9197 11.7199
1 3.95952 15.7193 10.9315
1 3.20938 14.9285 10.9229
1 4.7622 15.7134 11.7199
1 5.5559 14.9197 11.7199
1 5.57375 15.6994 10.9356
1 4.78941 14.9372 10.9364
1 6.3496 15.7134 11.7199
1 7.1433 14.9197 11.7199
1 7.15647 15.7181 10.9163
1 6.33475 14.9088 10.9207
1 7.93701 15.7134 11.7199
1 8.73071 14.9197 11.7199
1 8.72415 15.7179 10.9072
1 7.92629 14.9008 10.9381
1 9.52441 15.7134 11.7199
1 10.3181 14.9197 11.7199
1 10.3302 15.7188 10.9172
1 9.51149 14.9177 10.9212
1 11.1118 15.7134 11.7199
1 11.9055 14.9197 11.7199
1 11.882 15.7315 10.9056
1 11.1152 14.9016 10.9371
1 12.6992 15.7134 11.7199
1 13.4929 14.9197 11.7199
1 13.4615 15.7292 10.9304
1 12.6859 14.9089 10.9334
1 14.2866 15.7134 11.7199
1 15.0803 14.9197 11.7199
1 15.0822 15.7135 10.9172
1 14.2536 14.9409 10.912
1 15.874 15.7134 11.7199
1 16.6677 14.9197 11.7199
1 16.6617 15.7004 10.9189
1 15.8852 14.8977 10.9397
1 17.4614 15.7134 11.7199
1 18.2551 14.9197 11.7199
1 18.243 15.697 10.9357
1 17.4468 14.9274 10.8959
1 19.0488 15.7134 11.7199
1 19.8425 14.9197 11.7199
1 19.871 15.7062 10.9048
1 19.0469 14.9462 10.9444
1 20.6362 15.7134 11.7199
1 21.4299 14.9197 11.7199
1 21.4453 15.7125 10.9353
1 20.6545 14.905 10.9393
1 22.2236 15.7134 11.7199
1 23.0173 14.9197 11.7199
1 23.0088 15.7224 10.9139
1 22.2149 14.9116 10.9169
1 23.811 15.7134 11.7199
1 24.6047 14.9197 11.7199
1 24.5913 15.7059 10.9357
1 23.8023 14.924 10.9476
1 25.3984 15.7134 11.7199
1 26.1921 14.9197 11.7199
1 26.1902 15.7196 10.9342
1 25.411 14.9088 10.9316
1 26.9858 15.7134 11.7199
1 27.7795 14.9197 11.7199
1 27.7743 15.7152 10.9143
1 26.9622 14.9351 10.9336
1 28.5732 15.7134 11.7199
1 29.3669 14.9197 11.7199
1 29.3049 15.7049 10.8904
1 28.5767 14.906 10.9178
1 1.53131e-09 14.126 11.7199
1 0.793701 13.3323 11.7199
1 0.82696 14.1079 10.9216
1 0.107754 13.3066 10.8727
1 1.5874 14.126 11.7199
1 2.3811 13.3323 11.7199
1 2.39184 14.149 10.9272
1 1.62177 13.3297 10.9279
1 3.1748 14.126 11.7199
1 3.9685 13.3323 11.7199
1 3.99065 14.1266 10.9281
1 3.20393 13.3541 10.9186
1 4.7622 14.126 11.7199
1 5.5559 13.3323 11.7199
1 5.56134 14.1225 10.9238
1 4.76752 13.352 10.9233
1 6.3496 14.126 11.7199
1 7.1433 13.3323 11.7199
1 7.12704 14.1252 10.9279
1 6.36421 13.3638 10.9268
1 7.93701 14.126 11.7199
1 8.73071 13.3323 11.7199
1 8.7391 14.1259 10.9111
1 7.94811 13.3565 10.9353
1 9.52441 14.126 11.7199
1 10.3181 13.3323 11.7199
1 10.3358 14.1266 10.8976
1 9.50292 13.3488 10.92
1 11.1118 14.126 11.7199
1 11.9055 13.3323 11.7199
1 11.884 14.1215 10.9368
1 11.0899 13.3422 10.8972
1 12.6992 14.126 11.7199
1 13.4929 13.3323 11.7199
1 13.5174 14.1154 10.9065
1 12.7359 13.3436 10.924
1 14.2866 14.126 11.7199
1 15.0803 13.3323 11.7199
1 15.0635 14.1197 10.9163
1 14.2878 13.3235 10.908
1 15.874 14.126 11.7199
1 16.6677 13.3323 11.7199
1 16.6815 14.143 10.92
1 15.8512 13.3308 10.9365
1 17.4614 14.126 11.7199
1 18.2551 13.3323 11.7199
1 18.2721 14.1285 10.9103
1 17.486 13.3524 10.9272
1 19.0488 14.126 11.7199
1 19.8425 13.3323 11.7199
1 19.8407 14.1178 10.9597
1 19.0442 13.3208 10.9348
1 20.6362 14.126 11.7199
1 21.4299 13.3323 11.7199
1 21.429 14.115 10.9356
1 20.6338 13.3374 10.9381
1 22.2236 14.126 11.7199
1 23.0173 13.3323 11.7199
1 23.0124 14.1186 10.9563
1 22.2444 13.3063 10.9139
1 23.811 14.126 11.7199
1 24.6047 13.3323 11.7199
1 24.5909 14.1393 10.9435
1 23.7963 13.3496 10.917
1 25.3984 14.126 11.7199
1 26.1921 13.3323 11.7199
1 26.1694 14.1319 10.9469
1 25.3857 13.336 10.9307
1 26.9858 14.126 11.7199
1 27.7795 13.3323 11.7199
1 27.775 14.1231 10.9241
1 26.9719 13.3417 10.9202
1 28.5732 14.126 11.7199
1 29.3669 13.3323 11.7199
1 29.3349 14.1316 10.8881
1 28.5324 13.3263 10.9341
1 1.53131e-09 12.5386 11.7199
1 0.793701 11.7449 11.7199
1 0.833947 12.5211 10.8933
1 0.0838851 11.7641 10.8841
1 1.5874 12.5386 11.7199
1 2.3811 11.7449 11.7199
1 2.40339 12.5575 10.9287
1 1.61711 11.7571 10.9073
1 3.1748 12.5386 11.7199
1 3.9685 11.7449 11.7199
1 3.96869 12.5347 10.9279
1 3.18203 11.7479 10.9178
1 4.7622 12.5386 11.7199
1 5.5559 11.7449 11.7199
1 5.571 12.551 10.9201
1 4.74255 11.754 10.9252
1 6.3496 12.5386 11.7199
1 7.1433 11.7449 11.7199
1 7.14965 12.5495 10.9331
1 6.35604 11.7324 10.9272
1 7.93701 12.5386 11.7199
1 8.73071 11.7449 11.7199
1 8.71853 12.523 10.9209
1 7.94529 11.7456 10.9284
1 9.52441 12.5386 11.7199
1 10.3181 11.7449 11.7199
1 10.3358 12.5462 10.9195
1 9.50218 11.737 10.928
1 11.1118 12.5386 11.7199
1 11.9055 11.7449 11.7199
1 11.9239 12.555 10.9312
1 11.1052 11.7359 10.9437
1 12.6992 12.5386 11.7199
1 13.4929 11.7449 11.7199
1 13.499 12.5367 10.92
1 12.7169 11.7573 10.9403
1 14.2866 12.5386 11.7199
1 15.0803 11.7449 11.7199
1 15.0979 12.5242 10.9053
1 14.2949 11.75 10.9267
1 15.874 12.5386 11.7199
1 16.6677 11.7449 11.7199
1 16.6639 12.5484 10.9404
1 15.9084 11.7202 10.9365
1 17.4614 12.5386 11.7199
1 18.2551 11.7449 11.7199
1 18.2791 12.5264 10.9444
1 17.4683 11.7286 10.9122
1 19.0488 12.5386 11.7199
1 19.8425 11.7449 11.7199
1 19.8605 12.5285 10.9195
1 19.0632 11.7116 10.9339
1 20.6362 12.5386 11.7199
1 21.4299 11.7449 11.7199
1 21.4216 12.5295 10.9004
1 20.631 11.7365 10.922
1 22.2236 12.5386 11.7199
1 23.0173 11.7449 11.7199
1 23.0254 12.5417 10.9303
1 22.2026 11.7555 10.9386
1 23.811 12.5386 11.7199
1 24.6047 11.7449 11.7199
1 24.5905 12.517 10.9216
1 23.787 11.7462 10.9194
1 25.3984 12.5386 11.7199
1 26.1921 11.7449 11.7199
1 26.1754 12.5341 10.933
1 25.3853 11.7511 10.9148
1 26.9858 12.5386 11.7199
1 27.7795 11.7449 11.7199
1 27.769 12.5503 10.9276
1 26.9661 11.7689 10.9288
1 28.5732 12.5386 11.7199
1 29.3669 11.7449 11.7199
1 29.3123 12.5447 10.8991
1 28.5328 11.7428 10.9075
1 1.53131e-09 10.9512 11.7199
1 0.793701 10.1575 11.7199
1 0.818868 10.9479 10.9411
1 0.0708246 10.1549 10.8666
1 1.5874 10.9512 11.7199
1 2.3811 10.1575 11.7199
1 2.40835 10.943 10.9271
1 1.60452 10.1382 10.9407
1 3.1748 10.9512 11.7199
1 3.9685 10.1575 11.7199
1 3.97207 10.9245 10.9121
1 3.15204 10.1678 10.9167
1 4.7622 10.9512 11.7199
1 5.5559 10.1575 11.7199
1 5.53959 10.9479 10.9407
1 4.77354 10.1494 10.9112
1 6.3496 10.9512 11.7199
1 7.1433 10.1575 11.7199
1 7.16497 10.92 10.9301
1 6.32782 10.1416 10.9177
1 7.93701 10.9512 11.7199
1 8.73071 10.1575 11.7199
1 8.72929 10.9436 10.9124
1 7.93323 10.1634 10.9273
1 9.52441 10.9512 11.7199
1 10.3181 10.1575 11.7199
1 10.2979 10.9385 10.9289
1 9.49406 10.147 10.9411
1 11.1118 10.9512 11.7199
1 11.9055 10.1575 11.7199
1 11.8982 10.9445 10.9195
1 11.1008 10.1469 10.9339
1 12.6992 10.9512 11.7199
1 13.4929 10.1575 11.7199
1 13.5091 10.9594 10.9302
1 12.7142 10.1671 10.9363
1 14.2866 10.9512 11.7199
1 15.0803 10.1575 11.7199
1 15.0796 10.9302 10.8961
1 14.2904 10.123 10.9178
1 15.874 10.9512 11.7199
1 16.6677 10.1575 11.7199
1 16.6564 10.9343 10.9613
1 15.8632 10.1532 10.9263
1 17.4614 10.9512 11.7199
1 18.2551 10.1575 11.7199
1 18.2511 10.9339 10.9299
1 17.4555 10.1419 10.8946
1 19.0488 10.9512 11.7199
1 19.8425 10.1575 11.7199
1 19.8726 10.935 10.933
1 19.0378 10.1466 10.9132
1 20.6362 10.9512 11.7199
1 21.4299 10.1575 11.7199
1 21.4254 10.9482 10.9222
1 20.6338 10.139 10.9354
1 22.2236 10.9512 11.7199
1 23.0173 10.1575 11.7199
1 23.0152 10.9757 10.9409
1 22.2236 10.1916 10.9315
1 23.811 10.9512 11.7199
1 24.6047 10.1575 11.7199
1 24.6115 10.9654 10.9151
1 23.8172 10.1578 10.9397
1 25.3984 10.9512 11.7199
1 26.1921 10.1575 11.7199
1 26.1839 10.9465 10.9173
1 25.3656 10.1763 10.9227
1 26.9858 10.9512 11.7199
1 27.7795 10.1575 11.7199
1 27.7657 10.9652 10.923
1 26.9526 10.173 10.9485
1 28.5732 10.9512 11.7199
1 29.3669 10.1575 11.7199
1 29.3316 10.9615 10.9114
1 28.5559 10.1916 10.9257
1 1.53131e-09 9.36379 11.7199
1 0.793701 8.57009 11.7199
1 0.811645 9.37803 10.9207
1 0.0691591 8.55868 10.8903
1 1.5874 9.36379 11.7199
1 2.3811 8.57009 11.7199
1 2.41609 9.34405 10.94
1 1.58858 8.57689 10.9152
1 3.1748 9.36379 11.7199
1 3.9685 8.57009 11.7199
1 3.98127 9.36701 10.9256
1 3.19093 8.56647 10.9207
1 4.7622 9.36379 11.7199
1 5.5559 8.57009 11.7199
1 5.54505 9.36089 10.9101
1 4.76914 8.57516 10.9009
1 6.3496 9.36379 11.7199
1 7.1433 8.57009 11.7199
1 7.14486 9.38426 10.9297
1 6.35443 8.59373 10.9211
1 7.93701 9.36379 11.7199
1 8.73071 8.57009 11.7199
1 8.7224 9.35879 10.9263
1 7.93832 8.56684 10.9462
1 9.52441 9.36379 11.7199
1 10.3181 8.57009 11.7199
1 10.3037 9.34258 10.9408
1 9.5438 8.56727 10.9397
1 11.1118 9.36379 11.7199
1 11.9055 8.57009 11.7199
1 11.8974 9.36172 10.948
1 11.0888 8.57058 10.9235
1 12.6992 9.36379 11.7199
1 13.4929 8.57009 11.7199
1 13.4878 9.3362 10.9239
1 12.704 8.57838 10.934
1 14.2866 9.36379 11.7199
1 15.0803 8.57009 11.7199
1 15.0795 9.3546 10.9188
1 14.3166 8.5759 10.9179
1 15.874 9.36379 11.7199
1 16.6677 8.57009 11.7199
1 16.6552 9.37527 10.9316
1 15.8877 8.59308 10.9375
1 17.4614 9.36379 11.7199
1 18.2551 8.57009 11.7199
1 18.2646 9.32819 10.8976
1 17.4843 8.57211 10.9456
1 19.0488 9.36379 11.7199
1 19.8425 8.57009 11.7199
1 19.8184 9.3628 10.9245
1 19.0398 8.53857 10.9231
1 20.6362 9.36379 11.7199
1 21.4299 8.57009 11.7199
1 21.441 9.3633 10.9223
1 20.6308 8.59714 10.9304
1 22.2236 9.36379 11.7199
1 23.0173 8.57009 11.7199
1 23.0238 9.35439 10.9395
1 22.2152 8.54168 10.9362
1 23.811 9.36379 11.7199
1 24.6047 8.57009 11.7199
1 24.6108 9.36561 10.9359
1 23.8334 8.56201 10.9151
1 25.3984 9.36379 11.7199
1 26.1921 8.57009 11.7199
1 26.1963 9.3681 10.9337
1 25.3766 8.56425 10.9186
1 26.9858 9.36379 11.7199
1 27.7795 8.57009 11.7199
1 27.7795 9.39066 10.9307
1 26.9826 8.58491 10.9461
1 28.5732 9.36379 11.7199
1 29.3669 8.57009 11.7199
1 29.2939 9.36105 10.8883
1 28.5232 8.58495 10.9102
1 1.53131e-09 7.77639 11.7199
1 0.793701 6.98268 11.7199
1 0.815471 7.76683 10.8932
1 0.05273 6.99899 10.8563
1 1.5874 7.77639 11.7199
1 2.3811 6.98268 11.7199
1 2.39204 7.76749 10.9435
1 1.62447 6.97492 10.9165
1 3.1748 7.77639 11.7199
1 3.9685 6.98268 11.7199
1 3.98072 7.76777 10.9077
1 3.18693 6.99876 10.9141
1 4.7622 7.77639 11.7199
1 5.5559 6.98268 11.7199
1 5.58366 7.78265 10.9304
1 4.7703 7.01927 10.9167
1 6.3496 7.77639 11.7199
1 7.1433 6.98268 11.7199
1 7.17301 7.77882 10.9123
1 6.3463 6.98646 10.9134
1 7.93701 7.77639 11.7199
1 8.73071 6.98268 11.7199
1 8.71756 7.75966 10.9406
1 7.9349 6.98301 10.9413
1 9.52441 7.77639 11.7199
1 10.3181 6.98268 11.7199
1 10.3307 7.77349 10.9202
1 9.50749 6.99263 10.9162
1 11.1118 7.77639 11.7199
1 11.9055 6.98268 11.7199
1 11.8942 7.79829 10.9073
1 11.1266 6.98794 10.9113
1 12.6992 7.77639 11.7199
1 13.4929 6.98268 11.7199
1 13.5186 7.79704 10.95
1 12.6818 6.98422 10.9388
1 14.2866 7.77639 11.7199
1 15.0803 6.98268 11.7199
1 15.0866 7.78948 10.9219
1 14.2988 7.00296 10.9232
1 15.874 7.77639 11.7199
1 16.6677 6.98268 11.7199
1 16.6705 7.7887 10.9528
1 15.8555 6.95768 10.9447
1 17.4614 7.77639 11.7199
1 18.2551 6.98268 11.7199
1 18.2726 7.73807 10.9145
1 17.461 6.96053 10.9464
1 19.0488 7.77639 11.7199
1 19.8425 6.98268 11.7199
1 19.8272 7.77688 10.9336
1 19.0391 6.97677 10.947
1 20.6362 7.77639 11.7199
1 21.4299 6.98268 11.7199
1 21.4258 7.79256 10.9375
1 20.6154 6.97512 10.9576
1 22.2236 7.77639 11.7199
1 23.0173 6.98268 11.7199
1 23.0352 7.78404 10.9343
1 22.2093 6.99038 10.9485
1 23.811 7.77639 11.7199
1 24.6047 6.98268 11.7199
1 24.6134 7.76341 10.9204
1 23.8129 6.99981 10.9429
1 25.3984 7.77639 11.7199
1 26.1921 6.98268 11.7199
1 26.193 7.79541 10.9336
1 25.4142 6.97934 10.9197
1 26.9858 7.77639 11.7199
1 27.7795 6.98268 11.7199
1 27.7656 7.76404 10.9169
1 27.0054 6.97938 10.9267
1 28.5732 7.77639 11.7199
1 29.3669 6.98268 11.7199
1 29.2988 7.78894 10.9007
1 28.5554 6.96481 10.941
1 1.53131e-09 6.18898 11.7199
1 0.793701 5.39528 11.7199
1 0.82461 6.21307 10.9139
1 0.0607428 5.41541 10.8818
1 1.5874 6.18898 11.7199
1 2.3811 5.39528 11.7199
1 2.41538 6.1796 10.9208
1 1.61879 5.40773 10.9266
1 3.1748 6.18898 11.7199
1 3.9685 5.39528 11.7199
1 3.97371 6.19665 10.9467
1 3.18828 5.39005 10.9194
1 4.7622 6.18898 11.7199
1 5.5559 5.39528 11.7199
1 5.54619 6.16332 10.9241
1 4.75412 5.39632 10.9032
1 6.3496 6.18898 11.7199
1 7.1433 5.39528 11.7199
1 7.16856 6.21029 10.9356
1 6.36845 5.39085 10.9235