9376
Atoms. Timestep: 4000000
1 30 3.55271e-15 10.9637
1 0.793701 29.2063 10.9637
1 0.827904 29.9221 10.1019
1 0.079222 29.1714 10.1016
1 1.5874 3.55271e-15 10.9637
1 2.3811 29.2063 10.9637
1 2.38481 29.9085 10.1176
1 1.60248 29.149 10.1533
1 3.1748 3.55271e-15 10.9637
1 3.9685 29.2063 10.9637
1 3.96944 29.9195 10.1224
1 3.1681 29.1799 10.1756
1 4.7622 3.55271e-15 10.9637
1 5.5559 29.2063 10.9637
1 5.57948 29.9367 10.1345
1 4.78594 29.2022 10.1613
1 6.3496 3.55271e-15 10.9637
1 7.1433 29.2063 10.9637
1 7.14693 29.9473 10.131
1 6.36283 29.1676 10.1189
1 7.93701 3.55271e-15 10.9637
1 8.73071 29.2063 10.9637
1 8.71363 29.9556 10.1494
1 7.93377 29.163 10.1733
1 9.52441 3.55271e-15 10.9637
1 10.3181 29.2063 10.9637
1 10.2953 29.9346 10.1127
1 9.50711 29.1969 10.1639
1 11.1118 3.55271e-15 10.9637
1 11.9055 29.2063 10.9637
1 11.9037 29.9482 10.1321
1 11.086 29.2026 10.1486
1 12.6992 3.55271e-15 10.9637
1 13.4929 29.2063 10.9637
1 13.5061 29.9781 10.14
1 12.6909 29.2079 10.154
1 14.2866 3.55271e-15 10.9637
1 15.0803 29.2063 10.9637
1 15.0855 29.945 10.1315
1 14.2742 29.1829 10.1701
1 15.874 3.55271e-15 10.9637
1 16.6677 29.2063 10.9637
1 16.6583 29.9174 10.1361
1 15.871 29.1581 10.1536
1 17.4614 3.55271e-15 10.9637
1 18.2551 29.2063 10.9637
1 18.2604 29.9375 10.1371
1 17.4813 29.1747 10.1709
1 19.0488 3.55271e-15 10.9637
1 19.8425 29.2063 10.9637
1 19.8257 29.9082 10.1393
1 19.0487 29.1726 10.1564
1 20.6362 3.55271e-15 10.9637
1 21.4299 29.2063 10.9637
1 21.4102 29.9415 10.1652
1 20.6413 29.1817 10.1786
1 22.2236 3.55271e-15 10.9637
1 23.0173 29.2063 10.9637
1 22.9821 29.9285 10.1255
1 22.2227 29.1863 10.1612
1 23.811 3.55271e-15 10.9637
1 24.6047 29.2063 10.9637
1 24.6014 29.9231 10.1386
1 23.8027 29.1875 10.1671
1 25.3984 3.55271e-15 10.9637
1 26.1921 29.2063 10.9637
1 26.1769 29.9227 10.1373
1 25.3762 29.1677 10.1539
1 26.9858 3.55271e-15 10.9637
1 27.7795 29.2063 10.9637
1 27.7608 29.8842 10.124
1 26.9777 29.1886 10.1761
1 28.5732 3.55271e-15 10.9637
1 29.3669 29.2063 10.9637
1 29.3081 29.93 10.1156
1 28.5363 29.1714 10.1595
1 30 28.4126 10.9637
1 0.793701 27.6189 10.9637
1 0.815819 28.4009 10.1824
1 0.0731184 27.5996 10.1256
1 1.5874 28.4126 10.9637
1 2.3811 27.6189 10.9637
1 2.41066 28.3941 10.1497
1 1.59384 27.6226 10.1617
1 3.1748 28.4126 10.9637
1 3.9685 27.6189 10.9637
1 3.97853 28.3772 10.1633
1 3.20378 27.608 10.1406
1 4.7622 28.4126 10.9637
1 5.5559 27.6189 10.9637
1 5.54896 28.4033 10.1576
1 4.76635 27.6119 10.1685
1 6.3496 28.4126 10.9637
1 7.1433 27.6189 10.9637
1 7.14892 28.3877 10.165
1 6.33826 27.6165 10.1769
1 7.93701 28.4126 10.9637
1 8.73071 27.6189 10.9637
1 8.72898 28.4109 10.1828
1 7.93178 27.6116 10.1851
1 9.52441 28.4126 10.9637
1 10.3181 27.6189 10.9637
1 10.3087 28.3924 10.1693
1 9.5154 27.6277 10.188
1 11.1118 28.4126 10.9637
1 11.9055 27.6189 10.9637
1 11.9284 28.4118 10.1586
1 11.1357 27.5882 10.1692
1 12.6992 28.4126 10.9637
1 13.4929 27.6189 10.9637
1 13.5026 28.4082 10.1621
1 12.7025 27.5883 10.1699
1 14.2866 28.4126 10.9637
1 15.0803 27.6189 10.9637
1 15.0505 28.3995 10.1556
1 14.29 27.6164 10.1648
1 15.874 28.4126 10.9637
1 16.6677 27.6189 10.9637
1 16.6527 28.4136 10.1886
1 15.8799 27.6088 10.1748
1 17.4614 28.4126 10.9637
1 18.2551 27.6189 10.9637
1 18.2661 28.3942 10.1785
1 17.4691 27.5975 10.1888
1 19.0488 28.4126 10.9637
1 19.8425 27.6189 10.9637
1 19.8588 28.3856 10.1715
1 19.0555 27.5864 10.1765
1 20.6362 28.4126 10.9637
1 21.4299 27.6189 10.9637
1 21.4418 28.3811 10.1644
1 20.6313 27.5842 10.1854
1 22.2236 28.4126 10.9637
1 23.0173 27.6189 10.9637
1 23.0204 28.3656 10.1713
1 22.2393 27.6055 10.1697
1 23.811 28.4126 10.9637
1 24.6047 27.6189 10.9637
1 24.5626 28.3989 10.1731
1 23.8343 27.6011 10.1706
1 25.3984 28.4126 10.9637
1 26.1921 27.6189 10.9637
1 26.1545 28.3932 10.2118
1 25.3914 27.6442 10.1759
1 26.9858 28.4126 10.9637
1 27.7795 27.6189 10.9637
1 27.7827 28.4017 10.1363
1 26.9694 27.6134 10.157
1 28.5732 28.4126 10.9637
1 29.3669 27.6189 10.9637
1 29.3311 28.383 10.1384
1 28.5239 27.5796 10.1707
1 30 26.8252 10.9637
1 0.793701 26.0315 10.9637
1 0.831445 26.8392 10.1631
1 0.0456423 26.0388 10.124
1 1.5874 26.8252 10.9637
1 2.3811 26.0315 10.9637
1 2.36754 26.8528 10.1959
1 1.58702 26.0334 10.1882
1 3.1748 26.8252 10.9637
1 3.9685 26.0315 10.9637
1 3.98324 26.8176 10.1603
1 3.20044 26.0599 10.1766
1 4.7622 26.8252 10.9637
1 5.5559 26.0315 10.9637
1 5.58005 26.8269 10.176
1 4.76454 26.0324 10.1612
1 6.3496 26.8252 10.9637
1 7.1433 26.0315 10.9637
1 7.14038 26.8374 10.1812
1 6.32832 26.0326 10.1446
1 7.93701 26.8252 10.9637
1 8.73071 26.0315 10.9637
1 8.74279 26.8297 10.1719
1 7.93328 26.0348 10.1885
1 9.52441 26.8252 10.9637
1 10.3181 26.0315 10.9637
1 10.303 26.8196 10.1789
1 9.53124 26.023 10.1949
1 11.1118 26.8252 10.9637
1 11.9055 26.0315 10.9637
1 11.9207 26.8074 10.1709
1 11.1215 26.028 10.1521
1 12.6992 26.8252 10.9637
1 13.4929 26.0315 10.9637
1 13.498 26.8151 10.1577
1 12.7019 26.0149 10.1919
1 14.2866 26.8252 10.9637
1 15.0803 26.0315 10.9637
1 15.0746 26.8159 10.2015
1 14.2905 26.0228 10.1622
1 15.874 26.8252 10.9637
1 16.6677 26.0315 10.9637
1 16.6828 26.8195 10.1773
1 15.8829 26.006 10.1651
1 17.4614 26.8252 10.9637
1 18.2551 26.0315 10.9637
1 18.2447 26.8142 10.1861
1 17.4729 25.9887 10.1887
1 19.0488 26.8252 10.9637
1 19.8425 26.0315 10.9637
1 19.8428 26.8096 10.1929
1 19.031 26.0358 10.1803
1 20.6362 26.8252 10.9637
1 21.4299 26.0315 10.9637
1 21.4334 26.8192 10.194
1 20.6337 26.0418 10.1614
1 22.2236 26.8252 10.9637
1 23.0173 26.0315 10.9637
1 23.0231 26.8062 10.1594
1 22.2431 26.0146 10.162
1 23.811 26.8252 10.9637
1 24.6047 26.0315 10.9637
1 24.591 26.8073 10.1829
1 23.8013 26.0186 10.1847
1 25.3984 26.8252 10.9637
1 26.1921 26.0315 10.9637
1 26.1866 26.7912 10.1469
1 25.4062 26.0381 10.1664
1 26.9858 26.8252 10.9637
1 27.7795 26.0315 10.9637
1 27.7615 26.7841 10.1562
1 26.9741 26.0307 10.1545
1 28.5732 26.8252 10.9637
1 29.3669 26.0315 10.9637
1 29.2857 26.8262 10.1219
1 28.5322 26.02 10.1573
1 30 25.2378 10.9637
1 0.793701 24.4441 10.9637
1 0.816063 25.2406 10.1701
1 0.0605399 24.4315 10.1123
1 1.5874 25.2378 10.9637
1 2.3811 24.4441 10.9637
1 2.40702 25.2327 10.173
1 1.62005 24.4245 10.1728
1 3.1748 25.2378 10.9637
1 3.9685 24.4441 10.9637
1 3.96961 25.2533 10.1767
1 3.22182 24.4372 10.1641
1 4.7622 25.2378 10.9637
1 5.5559 24.4441 10.9637
1 5.54466 25.2487 10.1563
1 4.77173 24.4581 10.175
1 6.3496 25.2378 10.9637
1 7.1433 24.4441 10.9637
1 7.15264 25.248 10.177
1 6.35096 24.4478 10.1774
1 7.93701 25.2378 10.9637
1 8.73071 24.4441 10.9637
1 8.71546 25.2457 10.1455
1 7.94595 24.4439 10.1692
1 9.52441 25.2378 10.9637
1 10.3181 24.4441 10.9637
1 10.3317 25.2305 10.1579
1 9.5202 24.4593 10.1743
1 11.1118 25.2378 10.9637
1 11.9055 24.4441 10.9637
1 11.9143 25.2377 10.183
1 11.134 24.4244 10.1756
1 12.6992 25.2378 10.9637
1 13.4929 24.4441 10.9637
1 13.5023 25.236 10.1558
1 12.735 24.4282 10.1695
1 14.2866 25.2378 10.9637
1 15.0803 24.4441 10.9637
1 15.0938 25.2298 10.1662
1 14.2771 24.4361 10.1826
1 15.874 25.2378 10.9637
1 16.6677 24.4441 10.9637
1 16.6702 25.2334 10.1908
1 15.8611 24.4321 10.1566
1 17.4614 25.2378 10.9637
1 18.2551 24.4441 10.9637
1 18.2438 25.247 10.1761
1 17.485 24.4386 10.174
1 19.0488 25.2378 10.9637
1 19.8425 24.4441 10.9637
1 19.8164 25.2282 10.1815
1 19.0401 24.4202 10.1812
1 20.6362 25.2378 10.9637
1 21.4299 24.4441 10.9637
1 21.4147 25.2486 10.1924
1 20.6525 24.4416 10.1417
1 22.2236 25.2378 10.9637
1 23.0173 24.4441 10.9637
1 23.017 25.2007 10.1619
1 22.2374 24.4209 10.169
1 23.811 25.2378 10.9637
1 24.6047 24.4441 10.9637
1 24.5933 25.2416 10.1767
1 23.8361 24.4381 10.1762
1 25.3984 25.2378 10.9637
1 26.1921 24.4441 10.9637
1 26.1873 25.2606 10.1676
1 25.3973 24.4686 10.1465
1 26.9858 25.2378 10.9637
1 27.7795 24.4441 10.9637
1 27.75 25.2325 10.1926
1 26.971 24.4248 10.1484
1 28.5732 25.2378 10.9637
1 29.3669 24.4441 10.9637
1 29.2723 25.2328 10.1374
1 28.546 24.4244 10.1631
1 30 23.6504 10.9637
1 0.793701 22.8567 10.9637
1 0.830861 23.631 10.165
1 0.0611476 22.8617 10.1599
1 1.5874 23.6504 10.9637
1 2.3811 22.8567 10.9637
1 2.41489 23.6413 10.1333
1 1.62052 22.8496 10.1587
1 3.1748 23.6504 10.9637
1 3.9685 22.8567 10.9637
1 3.9726 23.6522 10.2006
1 3.197 22.85 10.1767
1 4.7622 23.6504 10.9637
1 5.5559 22.8567 10.9637
1 5.53681 23.662 10.1652
1 4.74616 22.8317 10.1745
1 6.3496 23.6504 10.9637
1 7.1433 22.8567 10.9637
1 7.13086 23.6483 10.155
1 6.37399 22.8475 10.1786
1 7.93701 23.6504 10.9637
1 8.73071 22.8567 10.9637
1 8.74082 23.6407 10.1631
1 7.93513 22.8845 10.1627
1 9.52441 23.6504 10.9637
1 10.3181 22.8567 10.9637
1 10.3381 23.6437 10.192
1 9.51029 22.8607 10.1649
1 11.1118 23.6504 10.9637
1 11.9055 22.8567 10.9637
1 11.9299 23.6699 10.1861
1 11.1348 22.8844 10.1987
1 12.6992 23.6504 10.9637
1 13.4929 22.8567 10.9637
1 13.5112 23.6324 10.1708
1 12.6895 22.8514 10.1924
1 14.2866 23.6504 10.9637
1 15.0803 22.8567 10.9637
1 15.0667 23.649 10.1571
1 14.2815 22.8364 10.1697
1 15.874 23.6504 10.9637
1 16.6677 22.8567 10.9637
1 16.6633 23.6357 10.1577
1 15.8952 22.8464 10.154
1 17.4614 23.6504 10.9637
1 18.2551 22.8567 10.9637
1 18.2207 23.639 10.1551
1 17.4476 22.8511 10.1741
1 19.0488 23.6504 10.9637
1 19.8425 22.8567 10.9637
1 19.8551 23.6351 10.1377
1 19.0361 22.8397 10.1708
1 20.6362 23.6504 10.9637
1 21.4299 22.8567 10.9637
1 21.4409 23.6347 10.1853
1 20.6234 22.8398 10.1681
1 22.2236 23.6504 10.9637
1 23.0173 22.8567 10.9637
1 23.0451 23.6596 10.1889
1 22.2121 22.8551 10.183
1 23.811 23.6504 10.9637
1 24.6047 22.8567 10.9637
1 24.6067 23.6552 10.1633
1 23.8273 22.8683 10.1819
1 25.3984 23.6504 10.9637
1 26.1921 22.8567 10.9637
1 26.1808 23.6546 10.1569
1 25.3805 22.8718 10.1909
1 26.9858 23.6504 10.9637
1 27.7795 22.8567 10.9637
1 27.7663 23.6619 10.1601
1 26.9631 22.8647 10.1806
1 28.5732 23.6504 10.9637
1 29.3669 22.8567 10.9637
1 29.2802 23.6361 10.1471
1 28.517 22.8493 10.1847
1 30 22.063 10.9637
1 0.793701 21.2693 10.9637
1 0.829947 22.0706 10.175
1 0.0676739 21.2597 10.1374
1 1.5874 22.063 10.9637
1 2.3811 21.2693 10.9637
1 2.40479 22.0769 10.158
1 1.60505 21.2878 10.1571
1 3.1748 22.063 10.9637
1 3.9685 21.2693 10.9637
1 3.97249 22.0796 10.1822
1 3.16725 21.2543 10.1587
1 4.7622 22.063 10.9637
1 5.5559 21.2693 10.9637
1 5.54362 22.0564 10.1795
1 4.771 21.2584 10.1674
1 6.3496 22.063 10.9637
1 7.1433 21.2693 10.9637
1 7.14742 22.0377 10.1883
1 6.34302 21.2514 10.1416
1 7.93701 22.063 10.9637
1 8.73071 21.2693 10.9637
1 8.73742 22.0727 10.1767
1 7.97786 21.2549 10.1818
1 9.52441 22.063 10.9637
1 10.3181 21.2693 10.9637
1 10.3143 22.0584 10.1709
1 9.53331 21.2717 10.1823
1 11.1118 22.063 10.9637
1 11.9055 21.2693 10.9637
1 11.9083 22.0825 10.1949
1 11.1153 21.2466 10.1753
1 12.6992 22.063 10.9637
1 13.4929 21.2693 10.9637
1 13.4991 22.0707 10.1706
1 12.7195 21.2795 10.1768
1 14.2866 22.063 10.9637
1 15.0803 21.2693 10.9637
1 15.0506 22.0506 10.1771
1 14.2605 21.285 10.1846
1 15.874 22.063 10.9637
1 16.6677 21.2693 10.9637
1 16.6704 22.0613 10.1816
1 15.8672 21.2781 10.1884
1 17.4614 22.063 10.9637
1 18.2551 21.2693 10.9637
1 18.2379 22.081 10.1738
1 17.468 21.2567 10.1866
1 19.0488 22.063 10.9637
1 19.8425 21.2693 10.9637
1 19.8455 22.0567 10.1688
1 19.0218 21.2457 10.1901
1 20.6362 22.063 10.9637
1 21.4299 21.2693 10.9637
1 21.4246 22.0703 10.162
1 20.6557 21.238 10.1575
1 22.2236 22.063 10.9637
1 23.0173 21.2693 10.9637
1 23.021 22.0816 10.1576
1 22.2305 21.2776 10.1821
1 23.811 22.063 10.9637
1 24.6047 21.2693 10.9637
1 24.5837 22.0602 10.1784
1 23.797 21.2999 10.1815
1 25.3984 22.063 10.9637
1 26.1921 21.2693 10.9637
1 26.1899 22.0462 10.1693
1 25.3816 21.2568 10.1733
1 26.9858 22.063 10.9637
1 27.7795 21.2693 10.9637
1 27.7467 22.0649 10.1734
1 26.9893 21.2625 10.1606
1 28.5732 22.063 10.9637
1 29.3669 21.2693 10.9637
1 29.28 22.057 10.1387
1 28.5382 21.2638 10.1801
1 30 20.4756 10.9637
1 0.793701 19.6819 10.9637
1 0.832356 20.4784 10.1848
1 0.0638256 19.6916 10.131
1 1.5874 20.4756 10.9637
1 2.3811 19.6819 10.9637
1 2.39133 20.4759 10.1702
1 1.6297 19.6816 10.1774
1 3.1748 20.4756 10.9637
1 3.9685 19.6819 10.9637
1 3.95632 20.4612 10.154
1 3.20904 19.6691 10.1609
1 4.7622 20.4756 10.9637
1 5.5559 19.6819 10.9637
1 5.55872 20.4575 10.17
1 4.75305 19.6717 10.1614
1 6.3496 20.4756 10.9637
1 7.1433 19.6819 10.9637
1 7.14918 20.4744 10.173
1 6.35219 19.677 10.1837
1 7.93701 20.4756 10.9637
1 8.73071 19.6819 10.9637
1 8.74965 20.4783 10.1846
1 7.95053 19.6741 10.1856
1 9.52441 20.4756 10.9637
1 10.3181 19.6819 10.9637
1 10.3236 20.4613 10.1619
1 9.53063 19.6634 10.1769
1 11.1118 20.4756 10.9637
1 11.9055 19.6819 10.9637
1 11.9222 20.4777 10.1749
1 11.1109 19.687 10.1708
1 12.6992 20.4756 10.9637
1 13.4929 19.6819 10.9637
1 13.5324 20.4725 10.1638
1 12.6965 19.682 10.1605
1 14.2866 20.4756 10.9637
1 15.0803 19.6819 10.9637
1 15.069 20.5062 10.1813
1 14.2875 19.7028 10.191
1 15.874 20.4756 10.9637
1 16.6677 19.6819 10.9637
1 16.6811 20.4594 10.1861
1 15.8591 19.6594 10.1825
1 17.4614 20.4756 10.9637
1 18.2551 19.6819 10.9637
1 18.2489 20.4638 10.1534
1 17.48 19.6803 10.1767
1 19.0488 20.4756 10.9637
1 19.8425 19.6819 10.9637
1 19.8537 20.473 10.2019
1 19.0564 19.6723 10.1692
1 20.6362 20.4756 10.9637
1 21.4299 19.6819 10.9637
1 21.4649 20.4547 10.152
1 20.6317 19.7008 10.1538
1 22.2236 20.4756 10.9637
1 23.0173 19.6819 10.9637
1 23.0039 20.4735 10.1837
1 22.2209 19.6762 10.1675
1 23.811 20.4756 10.9637
1 24.6047 19.6819 10.9637
1 24.5834 20.4866 10.1648
1 23.8048 19.7007 10.1753
1 25.3984 20.4756 10.9637
1 26.1921 19.6819 10.9637
1 26.1969 20.4489 10.1529
1 25.3914 19.6522 10.1774
1 26.9858 20.4756 10.9637
1 27.7795 19.6819 10.9637
1 27.7476 20.4742 10.1573
1 26.9644 19.6944 10.1843
1 28.5732 20.4756 10.9637
1 29.3669 19.6819 10.9637
1 29.2678 20.4702 10.137
1 28.5028 19.6791 10.1371
1 30 18.8882 10.9637
1 0.793701 18.0945 10.9637
1 0.807255 18.9171 10.1621
1 0.0778832 18.1045 10.1474
1 1.5874 18.8882 10.9637
1 2.3811 18.0945 10.9637
1 2.40256 18.8834 10.1714
1 1.59187 18.1177 10.172
1 3.1748 18.8882 10.9637
1 3.9685 18.0945 10.9637
1 3.96173 18.8894 10.1714
1 3.17485 18.1023 10.1818
1 4.7622 18.8882 10.9637
1 5.5559 18.0945 10.9637
1 5.53843 18.8776 10.1643
1 4.77262 18.0849 10.1624
1 6.3496 18.8882 10.9637
1 7.1433 18.0945 10.9637
1 7.16112 18.8946 10.1801
1 6.36198 18.1027 10.1921
1 7.93701 18.8882 10.9637
1 8.73071 18.0945 10.9637
1 8.73072 18.8868 10.147
1 7.96641 18.0647 10.1475
1 9.52441 18.8882 10.9637
1 10.3181 18.0945 10.9637
1 10.3453 18.8718 10.1735
1 9.53394 18.115 10.1725
1 11.1118 18.8882 10.9637
1 11.9055 18.0945 10.9637
1 11.9098 18.8662 10.1756
1 11.1189 18.0803 10.1622
1 12.6992 18.8882 10.9637
1 13.4929 18.0945 10.9637
1 13.5015 18.8871 10.1515
1 12.6886 18.102 10.1457
1 14.2866 18.8882 10.9637
1 15.0803 18.0945 10.9637
1 15.0604 18.8828 10.1718
1 14.2636 18.0788 10.1671
1 15.874 18.8882 10.9637
1 16.6677 18.0945 10.9637
1 16.6759 18.8723 10.1579
1 15.8648 18.1011 10.1538
1 17.4614 18.8882 10.9637
1 18.2551 18.0945 10.9637
1 18.25 18.888 10.1484
1 17.4578 18.1163 10.1595
1 19.0488 18.8882 10.9637
1 19.8425 18.0945 10.9637
1 19.8434 18.9025 10.1697
1 19.0414 18.072 10.1901
1 20.6362 18.8882 10.9637
1 21.4299 18.0945 10.9637
1 21.4261 18.8989 10.1696
1 20.6334 18.0937 10.1471
1 22.2236 18.8882 10.9637
1 23.0173 18.0945 10.9637
1 23.0322 18.8902 10.1648
1 22.2078 18.0878 10.1903
1 23.811 18.8882 10.9637
1 24.6047 18.0945 10.9637
1 24.6054 18.8889 10.1575
1 23.8037 18.0732 10.1379
1 25.3984 18.8882 10.9637
1 26.1921 18.0945 10.9637
1 26.2026 18.8936 10.148
1 25.3844 18.0868 10.1822
1 26.9858 18.8882 10.9637
1 27.7795 18.0945 10.9637
1 27.7534 18.8871 10.1768
1 26.9645 18.0951 10.1944
1 28.5732 18.8882 10.9637
1 29.3669 18.0945 10.9637
1 29.283 18.9076 10.1468
1 28.5584 18.0955 10.1679
1 30 17.3008 10.9637
1 0.793701 16.5071 10.9637
1 0.850425 17.32 10.1704
1 0.0835134 16.5396 10.1394
1 1.5874 17.3008 10.9637
1 2.3811 16.5071 10.9637
1 2.37769 17.3123 10.1726
1 1.62587 16.4885 10.1426
1 3.1748 17.3008 10.9637
1 3.9685 16.5071 10.9637
1 3.97195 17.3038 10.1732
1 3.14189 16.517 10.1698
1 4.7622 17.3008 10.9637
1 5.5559 16.5071 10.9637
1 5.58237 17.3297 10.1631
1 4.74396 16.5093 10.182
1 6.3496 17.3008 10.9637
1 7.1433 16.5071 10.9637
1 7.15145 17.302 10.176
1 6.36503 16.5163 10.1861
1 7.93701 17.3008 10.9637
1 8.73071 16.5071 10.9637
1 8.72726 17.3112 10.151
1 7.95425 16.5153 10.1727
1 9.52441 17.3008 10.9637
1 10.3181 16.5071 10.9637
1 10.3156 17.2927 10.1638
1 9.52951 16.5259 10.1794
1 11.1118 17.3008 10.9637
1 11.9055 16.5071 10.9637
1 11.8993 17.2979 10.1563
1 11.0976 16.4977 10.1725
1 12.6992 17.3008 10.9637
1 13.4929 16.5071 10.9637
1 13.4846 17.3003 10.1778
1 12.7033 16.512 10.1922
1 14.2866 17.3008 10.9637
1 15.0803 16.5071 10.9637
1 15.0803 17.3431 10.1885
1 14.2641 16.5013 10.1964
1 15.874 17.3008 10.9637
1 16.6677 16.5071 10.9637
1 16.6586 17.2802 10.166
1 15.8635 16.5054 10.1725
1 17.4614 17.3008 10.9637
1 18.2551 16.5071 10.9637
1 18.2424 17.2724 10.1624
1 17.4437 16.4746 10.1484
1 19.0488 17.3008 10.9637
1 19.8425 16.5071 10.9637
1 19.8471 17.3011 10.1634
1 19.0669 16.4961 10.1663
1 20.6362 17.3008 10.9637
1 21.4299 16.5071 10.9637
1 21.4339 17.2967 10.167
1 20.651 16.5228 10.1824
1 22.2236 17.3008 10.9637
1 23.0173 16.5071 10.9637
1 23.0092 17.2863 10.1729
1 22.2165 16.514 10.1711
1 23.811 17.3008 10.9637
1 24.6047 16.5071 10.9637
1 24.6168 17.2824 10.1756
1 23.8161 16.5201 10.1452
1 25.3984 17.3008 10.9637
1 26.1921 16.5071 10.9637
1 26.1859 17.2909 10.1735
1 25.4084 16.4876 10.1746
1 26.9858 17.3008 10.9637
1 27.7795 16.5071 10.9637
1 27.7582 17.3065 10.1545
1 26.9753 16.5211 10.172
1 28.5732 17.3008 10.9637
1 29.3669 16.5071 10.9637
1 29.3186 17.3124 10.1371
1 28.5578 16.5229 10.1833
1 30 15.7134 10.9637
1 0.793701 14.9197 10.9637
1 0.824276 15.7162 10.1776
1 0.0606587 14.9367 10.1395
1 1.5874 15.7134 10.9637
1 2.3811 14.9197 10.9637
1 2.39197 15.7108 10.1621
1 1.62025 14.9211 10.1621
1 3.1748 15.7134 10.9637
1 3.9685 14.9197 10.9637
1 3.98489 15.7216 10.1623
1 3.1688 14.9035 10.1489
1 4.7622 15.7134 10.9637
1 5.5559 14.9197 10.9637
1 5.57347 15.7059 10.1603
1 4.75541 14.9207 10.1987
1 6.3496 15.7134 10.9637
1 7.1433 14.9197 10.9637
1 7.1549 15.7181 10.1852
1 6.33721 14.9083 10.1592
1 7.93701 15.7134 10.9637
1 8.73071 14.9197 10.9637
1 8.72021 15.7161 10.1351
1 7.95236 14.904 10.1591
1 9.52441 15.7134 10.9637
1 10.3181 14.9197 10.9637
1 10.2916 15.7028 10.1697
1 9.52512 14.9087 10.1778
1 11.1118 15.7134 10.9637
1 11.9055 14.9197 10.9637
1 11.8914 15.6895 10.1673
1 11.0905 14.919 10.1504
1 12.6992 15.7134 10.9637
1 13.4929 14.9197 10.9637
1 13.5014 15.6974 10.1822
1 12.7098 14.8806 10.1817
1 14.2866 15.7134 10.9637
1 15.0803 14.9197 10.9637
1 15.0685 15.6893 10.1765
1 14.2869 14.924 10.1704
1 15.874 15.7134 10.9637
1 16.6677 14.9197 10.9637
1 16.6797 15.7292 10.1671
1 15.8789 14.9468 10.1334
1 17.4614 15.7134 10.9637
1 18.2551 14.9197 10.9637
1 18.2801 15.701 10.1575
1 17.4565 14.9183 10.1713
1 19.0488 15.7134 10.9637
1 19.8425 14.9197 10.9637
1 19.859 15.7253 10.1842
1 19.0712 14.8981 10.155
1 20.6362 15.7134 10.9637
1 21.4299 14.9197 10.9637
1 21.4286 15.7115 10.1638
1 20.6383 14.931 10.1768
1 22.2236 15.7134 10.9637
1 23.0173 14.9197 10.9637
1 23.0256 15.7363 10.1461
1 22.218 14.9091 10.1798
1 23.811 15.7134 10.9637
1 24.6047 14.9197 10.9637
1 24.5785 15.7171 10.1853
1 23.7786 14.9305 10.1835
1 25.3984 15.7134 10.9637
1 26.1921 14.9197 10.9637
1 26.1689 15.7115 10.1652
1 25.3996 14.9132 10.1672
1 26.9858 15.7134 10.9637
1 27.7795 14.9197 10.9637
1 27.758 15.712 10.1928
1 26.9779 14.9114 10.1604
1 28.5732 15.7134 10.9637
1 29.3669 14.9197 10.9637
1 29.2942 15.7139 10.1392
1 28.5378 14.9267 10.1679
1 30 14.126 10.9637
1 0.793701 13.3323 10.9637
1 0.833799 14.1332 10.1711
1 0.069287 13.3431 10.1512
1 1.5874 14.126 10.9637
1 2.3811 13.3323 10.9637
1 2.39196 14.109 10.1753
1 1.60069 13.3401 10.1462
1 3.1748 14.126 10.9637
1 3.9685 13.3323 10.9637
1 3.95853 14.1298 10.1487
1 3.16897 13.3588 10.177
1 4.7622 14.126 10.9637
1 5.5559 13.3323 10.9637
1 5.54745 14.1144 10.1669
1 4.73742 13.3391 10.1681
1 6.3496 14.126 10.9637
1 7.1433 13.3323 10.9637
1 7.12271 14.1004 10.1595
1 6.33569 13.3394 10.1662
1 7.93701 14.126 10.9637
1 8.73071 13.3323 10.9637
1 8.70752 14.125 10.1522
1 7.92113 13.3341 10.1592
1 9.52441 14.126 10.9637
1 10.3181 13.3323 10.9637
1 10.3188 14.1128 10.1806
1 9.52119 13.3334 10.1621
1 11.1118 14.126 10.9637
1 11.9055 13.3323 10.9637
1 11.8812 14.1267 10.1624
1 11.1273 13.33 10.1552
1 12.6992 14.126 10.9637
1 13.4929 13.3323 10.9637
1 13.5145 14.1305 10.1763
1 12.7002 13.345 10.155
1 14.2866 14.126 10.9637
1 15.0803 13.3323 10.9637
1 15.1114 14.1163 10.1507
1 14.3029 13.3415 10.165
1 15.874 14.126 10.9637
1 16.6677 13.3323 10.9637
1 16.6468 14.1271 10.182
1 15.9009 13.316 10.1879
1 17.4614 14.126 10.9637
1 18.2551 13.3323 10.9637
1 18.2547 14.1083 10.1743
1 17.4681 13.3259 10.1697
1 19.0488 14.126 10.9637
1 19.8425 13.3323 10.9637
1 19.8369 14.1108 10.1984
1 19.0856 13.2984 10.1468
1 20.6362 14.126 10.9637
1 21.4299 13.3323 10.9637
1 21.4091 14.1306 10.1751
1 20.6486 13.3407 10.1703
1 22.2236 14.126 10.9637
1 23.0173 13.3323 10.9637
1 23.0243 14.1573 10.1753
1 22.211 13.3455 10.1776
1 23.811 14.126 10.9637
1 24.6047 13.3323 10.9637
1 24.5983 14.1157 10.1781
1 23.8071 13.3557 10.1738
1 25.3984 14.126 10.9637
1 26.1921 13.3323 10.9637
1 26.2039 14.1205 10.1631
1 25.3825 13.3228 10.1683
1 26.9858 14.126 10.9637
1 27.7795 13.3323 10.9637
1 27.7689 14.1173 10.1489
1 27.0059 13.2988 10.1687
1 28.5732 14.126 10.9637
1 29.3669 13.3323 10.9637
1 29.303 14.1352 10.1692
1 28.5409 13.3568 10.1807
1 30 12.5386 10.9637
1 0.793701 11.7449 10.9637
1 0.820412 12.5489 10.182
1 0.064398 11.7344 10.1325
1 1.5874 12.5386 10.9637
1 2.3811 11.7449 10.9637
1 2.40802 12.5465 10.1587
1 1.62391 11.746 10.1784
1 3.1748 12.5386 10.9637
1 3.9685 11.7449 10.9637
1 3.97141 12.5404 10.1581
1 3.17571 11.7376 10.1571
1 4.7622 12.5386 10.9637
1 5.5559 11.7449 10.9637
1 5.53561 12.5201 10.1731
1 4.74582 11.746 10.1566
1 6.3496 12.5386 10.9637
1 7.1433 11.7449 10.9637
1 7.16694 12.5422 10.1663
1 6.35463 11.7513 10.1869
1 7.93701 12.5386 10.9637
1 8.73071 11.7449 10.9637
1 8.7484 12.5519 10.1509
1 7.9473 11.7418 10.1565
1 9.52441 12.5386 10.9637
1 10.3181 11.7449 10.9637
1 10.2952 12.5302 10.171
1 9.53115 11.7425 10.1524
1 11.1118 12.5386 10.9637
1 11.9055 11.7449 10.9637
1 11.9287 12.5327 10.1619
1 11.0981 11.7488 10.1722
1 12.6992 12.5386 10.9637
1 13.4929 11.7449 10.9637
1 13.4789 12.5392 10.1952
1 12.6968 11.7286 10.1639
1 14.2866 12.5386 10.9637
1 15.0803 11.7449 10.9637
1 15.1058 12.5197 10.1618
1 14.2721 11.7207 10.1751
1 15.874 12.5386 10.9637
1 16.6677 11.7449 10.9637
1 16.6704 12.5239 10.1626
1 15.8716 11.7005 10.1886
1 17.4614 12.5386 10.9637
1 18.2551 11.7449 10.9637
1 18.2596 12.5122 10.1612
1 17.4641 11.7588 10.1619
1 19.0488 12.5386 10.9637
1 19.8425 11.7449 10.9637
1 19.8392 12.5489 10.1482
1 19.043 11.7428 10.1626
1 20.6362 12.5386 10.9637
1 21.4299 11.7449 10.9637
1 21.4487 12.4985 10.1618
1 20.6045 11.7376 10.1517
1 22.2236 12.5386 10.9637
1 23.0173 11.7449 10.9637
1 23.0128 12.5569 10.1945
1 22.2331 11.746 10.1725
1 23.811 12.5386 10.9637
1 24.6047 11.7449 10.9637
1 24.6043 12.5502 10.1664
1 23.8147 11.781 10.1493
1 25.3984 12.5386 10.9637
1 26.1921 11.7449 10.9637
1 26.1997 12.5371 10.1629
1 25.4126 11.7422 10.1583
1 26.9858 12.5386 10.9637
1 27.7795 11.7449 10.9637
1 27.7645 12.521 10.1375
1 26.9929 11.7619 10.1629
1 28.5732 12.5386 10.9637
1 29.3669 11.7449 10.9637
1 29.3065 12.5563 10.1481
1 28.5452 11.7611 10.1841
1 30 10.9512 10.9637
1 0.793701 10.1575 10.9637
1 0.804701 10.9676 10.1679
1 0.0452631 10.1448 10.1389
1 1.5874 10.9512 10.9637
1 2.3811 10.1575 10.9637
1 2.37754 10.9515 10.1836
1 1.60828 10.1707 10.1688
1 3.1748 10.9512 10.9637
1 3.9685 10.1575 10.9637
1 3.97861 10.9076 10.1736
1 3.15839 10.1392 10.1617
1 4.7622 10.9512 10.9637
1 5.5559 10.1575 10.9637
1 5.55763 10.956 10.1731
1 4.79632 10.1523 10.1606
1 6.3496 10.9512 10.9637
1 7.1433 10.1575 10.9637
1 7.14929 10.9307 10.1379
1 6.3385 10.145 10.1695
1 7.93701 10.9512 10.9637
1 8.73071 10.1575 10.9637
1 8.72276 10.961 10.1342
1 7.93016 10.1523 10.1659
1 9.52441 10.9512 10.9637
1 10.3181 10.1575 10.9637
1 10.3283 10.9646 10.1661
1 9.51903 10.1709 10.1923
1 11.1118 10.9512 10.9637
1 11.9055 10.1575 10.9637
1 11.8818 10.9318 10.1955
1 11.0998 10.1405 10.1617
1 12.6992 10.9512 10.9637
1 13.4929 10.1575 10.9637
1 13.4958 10.9413 10.1933
1 12.7019 10.1562 10.1557
1 14.2866 10.9512 10.9637
1 15.0803 10.1575 10.9637
1 15.0685 10.9268 10.1611
1 14.2709 10.1249 10.1604
1 15.874 10.9512 10.9637
1 16.6677 10.1575 10.9637
1 16.682 10.9414 10.1803
1 15.8668 10.1347 10.1726
1 17.4614 10.9512 10.9637
1 18.2551 10.1575 10.9637
1 18.2366 10.9395 10.1791
1 17.4898 10.1484 10.1669
1 19.0488 10.9512 10.9637
1 19.8425 10.1575 10.9637
1 19.8353 10.9468 10.1756
1 19.0579 10.1651 10.1667
1 20.6362 10.9512 10.9637
1 21.4299 10.1575 10.9637
1 21.4337 10.9667 10.1838
1 20.6433 10.1576 10.1892
1 22.2236 10.9512 10.9637
1 23.0173 10.1575 10.9637
1 23.0196 10.9571 10.1901
1 22.2125 10.1851 10.1595
1 23.811 10.9512 10.9637
1 24.6047 10.1575 10.9637
1 24.6168 10.9633 10.1906
1 23.7954 10.1531 10.1904
1 25.3984 10.9512 10.9637
1 26.1921 10.1575 10.9637
1 26.2038 10.9586 10.1943
1 25.4143 10.1687 10.1856
1 26.9858 10.9512 10.9637
1 27.7795 10.1575 10.9637
1 27.7666 10.9427 10.1473
1 26.9699 10.1375 10.1764
1 28.5732 10.9512 10.9637
1 29.3669 10.1575 10.9637
1 29.2967 10.9585 10.1515
1 28.5477 10.1533 10.1635
1 30 9.36379 10.9637
1 0.793701 8.57009 10.9637
1 0.814976 9.36107 10.1732
1 0.0832496 8.5636 10.1372
1 1.5874 9.36379 10.9637
1 2.3811 8.57009 10.9637
1 2.38827 9.35154 10.1655
1 1.61801 8.56297 10.1513
1 3.1748 9.36379 10.9637
1 3.9685 8.57009 10.9637
1 3.96268 9.36059 10.1756
1 3.18574 8.54901 10.1916
1 4.7622 9.36379 10.9637
1 5.5559 8.57009 10.9637
1 5.54461 9.36061 10.1589
1 4.76584 8.55649 10.1573
1 6.3496 9.36379 10.9637
1 7.1433 8.57009 10.9637
1 7.15203 9.3597 10.1747
1 6.35384 8.5773 10.1926
1 7.93701 9.36379 10.9637
1 8.73071 8.57009 10.9637
1 8.74043 9.3597 10.1585
1 7.93345 8.57241 10.1635
1 9.52441 9.36379 10.9637
1 10.3181 8.57009 10.9637
1 10.3206 9.35632 10.1819
1 9.51638 8.57018 10.1534
1 11.1118 9.36379 10.9637
1 11.9055 8.57009 10.9637
1 11.8859 9.37242 10.1777
1 11.1049 8.60242 10.1963
1 12.6992 9.36379 10.9637
1 13.4929 8.57009 10.9637
1 13.4703 9.35697 10.1664
1 12.6997 8.57434 10.167
1 14.2866 9.36379 10.9637
1 15.0803 8.57009 10.9637
1 15.0821 9.3343 10.1323
1 14.2866 8.59165 10.1845
1 15.874 9.36379 10.9637
1 16.6677 8.57009 10.9637
1 16.6681 9.35788 10.1682
1 15.8574 8.55772 10.1766
1 17.4614 9.36379 10.9637
1 18.2551 8.57009 10.9637
1 18.2722 9.36392 10.1458
1 17.4798 8.55184 10.1842
1 19.0488 9.36379 10.9637
1 19.8425 8.57009 10.9637
1 19.8414 9.35198 10.1691
1 19.047 8.55721 10.1625
1 20.6362 9.36379 10.9637
1 21.4299 8.57009 10.9637
1 21.4294 9.37742 10.149
1 20.6295 8.56455 10.1652
1 22.2236 9.36379 10.9637
1 23.0173 8.57009 10.9637
1 23.0071 9.36073 10.171
1 22.2044 8.57729 10.1752
1 23.811 9.36379 10.9637
1 24.6047 8.57009 10.9637
1 24.5987 9.36361 10.1844
1 23.7954 8.54923 10.1912
1 25.3984 9.36379 10.9637
1 26.1921 8.57009 10.9637
1 26.1464 9.33341 10.1862
1 25.3824 8.55966 10.1821
1 26.9858 9.36379 10.9637
1 27.7795 8.57009 10.9637
1 27.7572 9.36803 10.1729
1 26.9892 8.57621 10.1868
1 28.5732 9.36379 10.9637
1 29.3669 8.57009 10.9637
1 29.285 9.33735 10.1513
1 28.5257 8.58582 10.1732
1 30 7.77639 10.9637
1 0.793701 6.98268 10.9637
1 0.82472 7.76368 10.1416
1 0.082107 6.9837 10.1641
1 1.5874 7.77639 10.9637
1 2.3811 6.98268 10.9637
1 2.39811 7.7662 10.1623
1 1.63032 6.9946 10.1638
1 3.1748 7.77639 10.9637
1 3.9685 6.98268 10.9637
1 3.99178 7.77159 10.1693
1 3.16916 6.98494 10.1586
1 4.7622 7.77639 10.9637
1 5.5559 6.98268 10.9637
1 5.54793 7.75278 10.176
1 4.77486 6.9834 10.1648
1 6.3496 7.77639 10.9637
1 7.1433 6.98268 10.9637
1 7.17347 7.78343 10.1705
1 6.35322 6.97992 10.1704
1 7.93701 7.77639 10.9637
1 8.73071 6.98268 10.9637
1 8.73371 7.80207 10.1772
1 7.9499 6.99597 10.1602
1 9.52441 7.77639 10.9637
1 10.3181 6.98268 10.9637
1 10.3444 7.79565 10.1617
1 9.5279 7.00247 10.1812
1 11.1118 7.77639 10.9637
1 11.9055 6.98268 10.9637
1 11.8971 7.78668 10.1732
1 11.1117 7.0047 10.1934
1 12.6992 7.77639 10.9637
1 13.4929 6.98268 10.9637
1 13.4871 7.78422 10.1986
1 12.6871 6.97475 10.1677
1 14.2866 7.77639 10.9637
1 15.0803 6.98268 10.9637
1 15.062 7.76206 10.1691
1 14.2896 6.95687 10.1732
1 15.874 7.77639 10.9637
1 16.6677 6.98268 10.9637
1 16.6617 7.76976 10.1495
1 15.8673 6.97724 10.21
1 17.4614 7.77639 10.9637
1 18.2551 6.98268 10.9637
1 18.2748 7.77679 10.1754
1 17.4594 6.98977 10.1726
1 19.0488 7.77639 10.9637
1 19.8425 6.98268 10.9637
1 19.8321 7.77882 10.182
1 19.065 6.98247 10.187
1 20.6362 7.77639 10.9637
1 21.4299 6.98268 10.9637
1 21.4347 7.77163 10.1492
1 20.6458 7.00558 10.1887
1 22.2236 7.77639 10.9637
1 23.0173 6.98268 10.9637
1 22.9994 7.77955 10.1773
1 22.2173 6.96563 10.161
1 23.811 7.77639 10.9637
1 24.6047 6.98268 10.9637
1 24.6181 7.75339 10.1845
1 23.8147 6.9907 10.1866
1 25.3984 7.77639 10.9637
1 26.1921 6.98268 10.9637
1 26.1831 7.79075 10.1778
1 25.4168 6.96451 10.1686
1 26.9858 7.77639 10.9637
1 27.7795 6.98268 10.9637
1 27.7814 7.76688 10.1696
1 26.9547 7.00515 10.1641
1 28.5732 7.77639 10.9637
1 29.3669 6.98268 10.9637
1 29.2981 7.78487 10.1405
1 28.5463 6.96839 10.155
1 30 6.18898 10.9637
1 0.793701 5.39528 10.9637
1 0.846842 6.22327 10.1626
1 0.0724837 5.42027 10.1495
1 1.5874 6.18898 10.9637
1 2.3811 5.39528 10.9637
1 2.39479 6.15711 10.1768
1 1.59476 5.40316 10.1592
1 3.1748 6.18898 10.9637
1 3.9685 5.39528 10.9637
1 3.97197 6.19125 10.167
1 3.19417 5.38661 10.1889
1 4.7622 6.18898 10.9637
1 5.5559 5.39528 10.9637
1 5.55139 6.19068 10.1582
1 4.7562 5.39169 10.2044
1 6.3496 6.18898 10.9637
1 7.1433 5.39528 10.9637
1 7.13281 6.17543 10.1742
1 6.35948 5.41744 10.1799
1 7.93701 6.18898 10.9637
1 8.73071 5.39528 10.9637
1 8.73854 6.21026 10.1845
1 7.94753 5.41321 10.1703
1 9.52441 6.18898 10.9637