9376
Atoms. Timestep: 4000000
1 30 3.55271e-15 11.007
1 0.793701 29.2063 11.007
1 0.831086 29.9565 10.184
1 0.0611388 29.1999 10.1564
1 1.5874 3.55271e-15 11.007
1 2.3811 29.2063 11.007
1 2.41681 29.9414 10.1949
1 1.60391 29.2181 10.2176
1 3.1748 3.55271e-15 11.007
1 3.9685 29.2063 11.007
1 3.99081 29.9204 10.1902
1 3.20232 29.1723 10.2181
1 4.7622 3.55271e-15 11.007
1 5.5559 29.2063 11.007
1 5.546 29.9225 10.1732
1 4.76626 29.1802 10.1974
1 6.3496 3.55271e-15 11.007
1 7.1433 29.2063 11.007
1 7.15097 29.9462 10.1931
1 6.3589 29.1791 10.2145
1 7.93701 3.55271e-15 11.007
1 8.73071 29.2063 11.007
1 8.72319 29.9352 10.1956
1 7.93497 29.1679 10.2202
1 9.52441 3.55271e-15 11.007
1 10.3181 29.2063 11.007
1 10.3031 29.9185 10.1732
1 9.50598 29.1599 10.2064
1 11.1118 3.55271e-15 11.007
1 11.9055 29.2063 11.007
1 11.9141 29.9211 10.172
1 11.1041 29.2119 10.2081
1 12.6992 3.55271e-15 11.007
1 13.4929 29.2063 11.007
1 13.489 29.9573 10.1647
1 12.7082 29.1932 10.1972
1 14.2866 3.55271e-15 11.007
1 15.0803 29.2063 11.007
1 15.0794 29.9126 10.1688
1 14.28 29.204 10.2131
1 15.874 3.55271e-15 11.007
1 16.6677 29.2063 11.007
1 16.7039 29.9002 10.1845
1 15.8612 29.1614 10.2013
1 17.4614 3.55271e-15 11.007
1 18.2551 29.2063 11.007
1 18.2666 29.9184 10.1918
1 17.4606 29.1636 10.2383
1 19.0488 3.55271e-15 11.007
1 19.8425 29.2063 11.007
1 19.8353 29.9308 10.1674
1 19.0748 29.1435 10.2114
1 20.6362 3.55271e-15 11.007
1 21.4299 29.2063 11.007
1 21.433 29.928 10.1777
1 20.6069 29.1651 10.2184
1 22.2236 3.55271e-15 11.007
1 23.0173 29.2063 11.007
1 23.0361 29.9357 10.1972
1 22.2411 29.1718 10.194
1 23.811 3.55271e-15 11.007
1 24.6047 29.2063 11.007
1 24.6066 29.9047 10.2036
1 23.8093 29.1627 10.2073
1 25.3984 3.55271e-15 11.007
1 26.1921 29.2063 11.007
1 26.173 29.9199 10.1724
1 25.3808 29.1586 10.1809
1 26.9858 3.55271e-15 11.007
1 27.7795 29.2063 11.007
1 27.7303 29.9428 10.1825
1 26.951 29.1734 10.2215
1 28.5732 3.55271e-15 11.007
1 29.3669 29.2063 11.007
1 29.3012 29.914 10.1198
1 28.5284 29.1652 10.2106
1 30 28.4126 11.007
1 0.793701 27.6189 11.007
1 0.816033 28.4156 10.1999
1 0.0564809 27.609 10.164
1 1.5874 28.4126 11.007
1 2.3811 27.6189 11.007
1 2.40759 28.4121 10.2162
1 1.60322 27.6107 10.2068
1 3.1748 28.4126 11.007
1 3.9685 27.6189 11.007
1 3.99243 28.3862 10.2137
1 3.16745 27.628 10.2238
1 4.7622 28.4126 11.007
1 5.5559 27.6189 11.007
1 5.55202 28.3849 10.2248
1 4.79191 27.5898 10.2177
1 6.3496 28.4126 11.007
1 7.1433 27.6189 11.007
1 7.12352 28.3977 10.2153
1 6.33602 27.6005 10.1902
1 7.93701 28.4126 11.007
1 8.73071 27.6189 11.007
1 8.70778 28.3858 10.2169
1 7.91399 27.5938 10.2157
1 9.52441 28.4126 11.007
1 10.3181 27.6189 11.007
1 10.3279 28.4149 10.2149
1 9.53383 27.6008 10.2045
1 11.1118 28.4126 11.007
1 11.9055 27.6189 11.007
1 11.9106 28.3953 10.1874
1 11.1194 27.6163 10.2049
1 12.6992 28.4126 11.007
1 13.4929 27.6189 11.007
1 13.4847 28.3948 10.2284
1 12.6926 27.5759 10.2325
1 14.2866 28.4126 11.007
1 15.0803 27.6189 11.007
1 15.0788 28.4164 10.2045
1 14.2975 27.6036 10.2152
1 15.874 28.4126 11.007
1 16.6677 27.6189 11.007
1 16.6661 28.3866 10.2381
1 15.8761 27.6049 10.1961
1 17.4614 28.4126 11.007
1 18.2551 27.6189 11.007
1 18.2553 28.3933 10.2236
1 17.4775 27.6059 10.2276
1 19.0488 28.4126 11.007
1 19.8425 27.6189 11.007
1 19.849 28.3799 10.197
1 19.0617 27.5791 10.2092
1 20.6362 28.4126 11.007
1 21.4299 27.6189 11.007
1 21.414 28.3913 10.1944
1 20.6407 27.5795 10.2038
1 22.2236 28.4126 11.007
1 23.0173 27.6189 11.007
1 23.028 28.4017 10.2162
1 22.2131 27.5934 10.1954
1 23.811 28.4126 11.007
1 24.6047 27.6189 11.007
1 24.6123 28.397 10.2157
1 23.8198 27.6205 10.2245
1 25.3984 28.4126 11.007
1 26.1921 27.6189 11.007
1 26.1896 28.3875 10.2297
1 25.4026 27.5888 10.2049
1 26.9858 28.4126 11.007
1 27.7795 27.6189 11.007
1 27.7796 28.3907 10.2126
1 26.9988 27.616 10.2173
1 28.5732 28.4126 11.007
1 29.3669 27.6189 11.007
1 29.2842 28.4016 10.1777
1 28.554 27.6154 10.2024
1 30 26.8252 11.007
1 0.793701 26.0315 11.007
1 0.829226 26.8305 10.2166
1 0.0596868 26.0373 10.1775
1 1.5874 26.8252 11.007
1 2.3811 26.0315 11.007
1 2.37379 26.8406 10.2282
1 1.58946 26.0438 10.1874
1 3.1748 26.8252 11.007
1 3.9685 26.0315 11.007
1 3.96453 26.8431 10.2024
1 3.17715 26.0621 10.2054
1 4.7622 26.8252 11.007
1 5.5559 26.0315 11.007
1 5.54987 26.7938 10.2118
1 4.76631 26.0296 10.1943
1 6.3496 26.8252 11.007
1 7.1433 26.0315 11.007
1 7.13175 26.8148 10.1905
1 6.3473 26.0407 10.205
1 7.93701 26.8252 11.007
1 8.73071 26.0315 11.007
1 8.74253 26.8322 10.2248
1 7.93185 26.0521 10.236
1 9.52441 26.8252 11.007
1 10.3181 26.0315 11.007
1 10.3188 26.8306 10.2337
1 9.50691 26.0244 10.2316
1 11.1118 26.8252 11.007
1 11.9055 26.0315 11.007
1 11.8938 26.8176 10.2306
1 11.095 26.0372 10.231
1 12.6992 26.8252 11.007
1 13.4929 26.0315 11.007
1 13.4953 26.8186 10.2462
1 12.6663 26.0033 10.2089
1 14.2866 26.8252 11.007
1 15.0803 26.0315 11.007
1 15.0977 26.8001 10.2232
1 14.2749 26.0222 10.2163
1 15.874 26.8252 11.007
1 16.6677 26.0315 11.007
1 16.686 26.8201 10.1817
1 15.8771 26.032 10.1956
1 17.4614 26.8252 11.007
1 18.2551 26.0315 11.007
1 18.2633 26.8054 10.2334
1 17.456 25.9878 10.2264
1 19.0488 26.8252 11.007
1 19.8425 26.0315 11.007
1 19.8235 26.8012 10.2081
1 19.064 25.9925 10.1987
1 20.6362 26.8252 11.007
1 21.4299 26.0315 11.007
1 21.4292 26.8056 10.2168
1 20.628 26.0124 10.2199
1 22.2236 26.8252 11.007
1 23.0173 26.0315 11.007
1 23.0156 26.8267 10.2003
1 22.2383 26.0215 10.2326
1 23.811 26.8252 11.007
1 24.6047 26.0315 11.007
1 24.5923 26.8137 10.2159
1 23.7948 26.027 10.1911
1 25.3984 26.8252 11.007
1 26.1921 26.0315 11.007
1 26.1953 26.8097 10.1904
1 25.3848 26.0286 10.2006
1 26.9858 26.8252 11.007
1 27.7795 26.0315 11.007
1 27.7855 26.8009 10.2042
1 26.9868 26.0234 10.2205
1 28.5732 26.8252 11.007
1 29.3669 26.0315 11.007
1 29.3007 26.8022 10.179
1 28.5502 26.0229 10.2046
1 30 25.2378 11.007
1 0.793701 24.4441 11.007
1 0.811145 25.2284 10.2081
1 0.0677334 24.4107 10.1956
1 1.5874 25.2378 11.007
1 2.3811 24.4441 11.007
1 2.35664 25.2507 10.2216
1 1.6102 24.4226 10.194
1 3.1748 25.2378 11.007
1 3.9685 24.4441 11.007
1 3.94078 25.2352 10.2209
1 3.16131 24.4454 10.2133
1 4.7622 25.2378 11.007
1 5.5559 24.4441 11.007
1 5.5362 25.2567 10.2463
1 4.74467 24.4424 10.2259
1 6.3496 25.2378 11.007
1 7.1433 24.4441 11.007
1 7.15177 25.2435 10.1991
1 6.34444 24.4478 10.198
1 7.93701 25.2378 11.007
1 8.73071 24.4441 11.007
1 8.68874 25.2247 10.2033
1 7.92273 24.455 10.1991
1 9.52441 25.2378 11.007
1 10.3181 24.4441 11.007
1 10.3104 25.2504 10.2422
1 9.50505 24.4365 10.2301
1 11.1118 25.2378 11.007
1 11.9055 24.4441 11.007
1 11.8781 25.2293 10.2336
1 11.073 24.4331 10.2314
1 12.6992 25.2378 11.007
1 13.4929 24.4441 11.007
1 13.4596 25.2523 10.2284
1 12.7034 24.4419 10.1964
1 14.2866 25.2378 11.007
1 15.0803 24.4441 11.007
1 15.0912 25.2384 10.2168
1 14.2743 24.4463 10.1819
1 15.874 25.2378 11.007
1 16.6677 24.4441 11.007
1 16.6714 25.2183 10.2032
1 15.8757 24.4509 10.2108
1 17.4614 25.2378 11.007
1 18.2551 24.4441 11.007
1 18.2264 25.2251 10.1949
1 17.4569 24.4234 10.2231
1 19.0488 25.2378 11.007
1 19.8425 24.4441 11.007
1 19.8342 25.213 10.1986
1 19.0437 24.4272 10.201
1 20.6362 25.2378 11.007
1 21.4299 24.4441 11.007
1 21.4073 25.2322 10.2167
1 20.6426 24.4418 10.2325
1 22.2236 25.2378 11.007
1 23.0173 24.4441 11.007
1 23.0398 25.2249 10.2245
1 22.2328 24.4501 10.2195
1 23.811 25.2378 11.007
1 24.6047 24.4441 11.007
1 24.5995 25.2325 10.203
1 23.7968 24.4153 10.201
1 25.3984 25.2378 11.007
1 26.1921 24.4441 11.007
1 26.1964 25.2249 10.2241
1 25.3863 24.415 10.201
1 26.9858 25.2378 11.007
1 27.7795 24.4441 11.007
1 27.7795 25.243 10.2206
1 26.9747 24.4514 10.2166
1 28.5732 25.2378 11.007
1 29.3669 24.4441 11.007
1 29.302 25.213 10.1502
1 28.5339 24.4451 10.1978
1 30 23.6504 11.007
1 0.793701 22.8567 11.007
1 0.828853 23.6563 10.2056
1 0.0465173 22.8452 10.1807
1 1.5874 23.6504 11.007
1 2.3811 22.8567 11.007
1 2.39541 23.643 10.2197
1 1.6057 22.8587 10.1938
1 3.1748 23.6504 11.007
1 3.9685 22.8567 11.007
1 3.96029 23.6496 10.2344
1 3.19318 22.8494 10.242
1 4.7622 23.6504 11.007
1 5.5559 22.8567 11.007
1 5.54789 23.6532 10.2013
1 4.76328 22.8705 10.2348
1 6.3496 23.6504 11.007
1 7.1433 22.8567 11.007
1 7.14556 23.6637 10.1805
1 6.34301 22.8287 10.2194
1 7.93701 23.6504 11.007
1 8.73071 22.8567 11.007
1 8.7247 23.6476 10.2119
1 7.93421 22.8696 10.2195
1 9.52441 23.6504 11.007
1 10.3181 22.8567 11.007
1 10.3019 23.6275 10.2078
1 9.52453 22.8356 10.2079
1 11.1118 23.6504 11.007
1 11.9055 22.8567 11.007
1 11.8868 23.6666 10.2313
1 11.0958 22.844 10.2265
1 12.6992 23.6504 11.007
1 13.4929 22.8567 11.007
1 13.4931 23.6489 10.2169
1 12.6984 22.8943 10.212
1 14.2866 23.6504 11.007
1 15.0803 22.8567 11.007
1 15.0836 23.653 10.1948
1 14.3185 22.8612 10.2072
1 15.874 23.6504 11.007
1 16.6677 22.8567 11.007
1 16.6381 23.6679 10.2233
1 15.8815 22.8534 10.2406
1 17.4614 23.6504 11.007
1 18.2551 22.8567 11.007
1 18.2572 23.6468 10.203
1 17.4665 22.8623 10.2214
1 19.0488 23.6504 11.007
1 19.8425 22.8567 11.007
1 19.8558 23.6482 10.2133
1 19.0366 22.8584 10.2091
1 20.6362 23.6504 11.007
1 21.4299 22.8567 11.007
1 21.4235 23.6271 10.2137
1 20.6445 22.8524 10.2139
1 22.2236 23.6504 11.007
1 23.0173 22.8567 11.007
1 22.9959 23.6397 10.2022
1 22.2027 22.8515 10.2239
1 23.811 23.6504 11.007
1 24.6047 22.8567 11.007
1 24.6241 23.6594 10.2067
1 23.8062 22.865 10.218
1 25.3984 23.6504 11.007
1 26.1921 22.8567 11.007
1 26.1742 23.6366 10.2013
1 25.4023 22.8296 10.2047
1 26.9858 23.6504 11.007
1 27.7795 22.8567 11.007
1 27.766 23.6736 10.2017
1 26.9824 22.8429 10.2305
1 28.5732 23.6504 11.007
1 29.3669 22.8567 11.007
1 29.2894 23.6391 10.1787
1 28.5274 22.8441 10.2034
1 30 22.063 11.007
1 0.793701 21.2693 11.007
1 0.815837 22.0675 10.2342
1 0.050363 21.2622 10.1898
1 1.5874 22.063 11.007
1 2.3811 21.2693 11.007
1 2.3731 22.0624 10.2167
1 1.60938 21.2822 10.2248
1 3.1748 22.063 11.007
1 3.9685 21.2693 11.007
1 3.97578 22.074 10.2276
1 3.17684 21.2875 10.2131
1 4.7622 22.063 11.007
1 5.5559 21.2693 11.007
1 5.55917 22.0525 10.2189
1 4.7412 21.2745 10.2019
1 6.3496 22.063 11.007
1 7.1433 21.2693 11.007
1 7.14207 22.0587 10.2134
1 6.35979 21.2595 10.1969
1 7.93701 22.063 11.007
1 8.73071 21.2693 11.007
1 8.70728 22.0666 10.1954
1 7.96185 21.2485 10.2159
1 9.52441 22.063 11.007
1 10.3181 21.2693 11.007
1 10.3141 22.0442 10.2117
1 9.49683 21.2488 10.1853
1 11.1118 22.063 11.007
1 11.9055 21.2693 11.007
1 11.8869 22.0572 10.239
1 11.0937 21.2703 10.2124
1 12.6992 22.063 11.007
1 13.4929 21.2693 11.007
1 13.4988 22.0627 10.2036
1 12.7308 21.2545 10.2112
1 14.2866 22.063 11.007
1 15.0803 21.2693 11.007
1 15.0862 22.0543 10.2166
1 14.2763 21.2718 10.2511
1 15.874 22.063 11.007
1 16.6677 21.2693 11.007
1 16.6852 22.0437 10.2306
1 15.8772 21.2716 10.2278
1 17.4614 22.063 11.007
1 18.2551 21.2693 11.007
1 18.2559 22.0543 10.1961
1 17.444 21.2646 10.1983
1 19.0488 22.063 11.007
1 19.8425 21.2693 11.007
1 19.8449 22.073 10.196
1 19.0477 21.2495 10.2471
1 20.6362 22.063 11.007
1 21.4299 21.2693 11.007
1 21.4167 22.0551 10.2086
1 20.6346 21.2675 10.2331
1 22.2236 22.063 11.007
1 23.0173 21.2693 11.007
1 23.0043 22.091 10.2252
1 22.2016 21.2581 10.2211
1 23.811 22.063 11.007
1 24.6047 21.2693 11.007
1 24.5854 22.0777 10.2166
1 23.8339 21.2722 10.2288
1 25.3984 22.063 11.007
1 26.1921 21.2693 11.007
1 26.2033 22.0809 10.2035
1 25.408 21.2875 10.2154
1 26.9858 22.063 11.007
1 27.7795 21.2693 11.007
1 27.7421 22.0411 10.2196
1 26.9918 21.2736 10.2132
1 28.5732 22.063 11.007
1 29.3669 21.2693 11.007
1 29.3046 22.0619 10.1693
1 28.5498 21.2604 10.174
1 30 20.4756 11.007
1 0.793701 19.6819 11.007
1 0.813882 20.4717 10.1987
1 0.0314642 19.6849 10.1714
1 1.5874 20.4756 11.007
1 2.3811 19.6819 11.007
1 2.41523 20.4823 10.2229
1 1.60047 19.7049 10.2135
1 3.1748 20.4756 11.007
1 3.9685 19.6819 11.007
1 3.97199 20.478 10.2208
1 3.17215 19.6874 10.2179
1 4.7622 20.4756 11.007
1 5.5559 19.6819 11.007
1 5.58286 20.4723 10.2166
1 4.79446 19.6467 10.2158
1 6.3496 20.4756 11.007
1 7.1433 19.6819 11.007
1 7.14431 20.4787 10.2225
1 6.35878 19.6795 10.1876
1 7.93701 20.4756 11.007
1 8.73071 19.6819 11.007
1 8.75381 20.4893 10.2057
1 7.97567 19.6911 10.2022
1 9.52441 20.4756 11.007
1 10.3181 19.6819 11.007
1 10.3166 20.4927 10.2012
1 9.5524 19.6808 10.2185
1 11.1118 20.4756 11.007
1 11.9055 19.6819 11.007
1 11.8954 20.4914 10.2198
1 11.1277 19.6884 10.2066
1 12.6992 20.4756 11.007
1 13.4929 19.6819 11.007
1 13.4814 20.4666 10.2122
1 12.6972 19.6761 10.2202
1 14.2866 20.4756 11.007
1 15.0803 19.6819 11.007
1 15.0949 20.4929 10.2148
1 14.3005 19.6805 10.2105
1 15.874 20.4756 11.007
1 16.6677 19.6819 11.007
1 16.6739 20.4849 10.2149
1 15.8818 19.6807 10.2137
1 17.4614 20.4756 11.007
1 18.2551 19.6819 11.007
1 18.2511 20.4718 10.2216
1 17.4736 19.6959 10.2084
1 19.0488 20.4756 11.007
1 19.8425 19.6819 11.007
1 19.8385 20.4709 10.2105
1 19.0567 19.6844 10.211
1 20.6362 20.4756 11.007
1 21.4299 19.6819 11.007
1 21.4242 20.4784 10.199
1 20.6199 19.6847 10.2142
1 22.2236 20.4756 11.007
1 23.0173 19.6819 11.007
1 23.0213 20.4633 10.2298
1 22.2262 19.6816 10.1949
1 23.811 20.4756 11.007
1 24.6047 19.6819 11.007
1 24.6115 20.503 10.2259
1 23.8014 19.6883 10.2392
1 25.3984 20.4756 11.007
1 26.1921 19.6819 11.007
1 26.2103 20.513 10.2321
1 25.3724 19.706 10.2349
1 26.9858 20.4756 11.007
1 27.7795 19.6819 11.007
1 27.7699 20.4637 10.2128
1 26.9552 19.6857 10.2222
1 28.5732 20.4756 11.007
1 29.3669 19.6819 11.007
1 29.3117 20.4759 10.1704
1 28.5486 19.6999 10.1893
1 30 18.8882 11.007
1 0.793701 18.0945 11.007
1 0.803832 18.88 10.2055
1 0.0722973 18.0561 10.197
1 1.5874 18.8882 11.007
1 2.3811 18.0945 11.007
1 2.39307 18.8937 10.2173
1 1.58195 18.1146 10.2074
1 3.1748 18.8882 11.007
1 3.9685 18.0945 11.007
1 3.97976 18.8737 10.2035
1 3.17701 18.118 10.2082
1 4.7622 18.8882 11.007
1 5.5559 18.0945 11.007
1 5.58938 18.8764 10.2283
1 4.78371 18.1115 10.2228
1 6.3496 18.8882 11.007
1 7.1433 18.0945 11.007
1 7.1253 18.876 10.1969
1 6.34492 18.0842 10.2143
1 7.93701 18.8882 11.007
1 8.73071 18.0945 11.007
1 8.72977 18.9212 10.2113
1 7.95099 18.1184 10.2302
1 9.52441 18.8882 11.007
1 10.3181 18.0945 11.007
1 10.3264 18.8855 10.2071
1 9.51851 18.1037 10.1954
1 11.1118 18.8882 11.007
1 11.9055 18.0945 11.007
1 11.9049 18.8903 10.1842
1 11.1123 18.0947 10.2135
1 12.6992 18.8882 11.007
1 13.4929 18.0945 11.007
1 13.4939 18.8936 10.211
1 12.7363 18.0955 10.2322
1 14.2866 18.8882 11.007
1 15.0803 18.0945 11.007
1 15.083 18.8905 10.2082
1 14.2938 18.0803 10.2188
1 15.874 18.8882 11.007
1 16.6677 18.0945 11.007
1 16.6495 18.9161 10.2234
1 15.9027 18.0899 10.2055
1 17.4614 18.8882 11.007
1 18.2551 18.0945 11.007
1 18.2458 18.9074 10.2056
1 17.4496 18.1208 10.2476
1 19.0488 18.8882 11.007
1 19.8425 18.0945 11.007
1 19.8568 18.8935 10.2038
1 19.0396 18.1136 10.2074
1 20.6362 18.8882 11.007
1 21.4299 18.0945 11.007
1 21.4377 18.8974 10.2173
1 20.6289 18.0792 10.1949
1 22.2236 18.8882 11.007
1 23.0173 18.0945 11.007
1 23.0094 18.8897 10.2112
1 22.2145 18.0949 10.2063
1 23.811 18.8882 11.007
1 24.6047 18.0945 11.007
1 24.5937 18.8794 10.2209
1 23.8121 18.0817 10.2363
1 25.3984 18.8882 11.007
1 26.1921 18.0945 11.007
1 26.1814 18.8921 10.2133
1 25.3867 18.0803 10.2204
1 26.9858 18.8882 11.007
1 27.7795 18.0945 11.007
1 27.761 18.915 10.2007
1 26.9891 18.0996 10.219
1 28.5732 18.8882 11.007
1 29.3669 18.0945 11.007
1 29.3061 18.8797 10.197
1 28.5219 18.1178 10.1946
1 30 17.3008 11.007
1 0.793701 16.5071 11.007
1 0.816622 17.2804 10.226
1 0.0475568 16.5022 10.1614
1 1.5874 17.3008 11.007
1 2.3811 16.5071 11.007
1 2.36945 17.3303 10.2367
1 1.58776 16.5085 10.2258
1 3.1748 17.3008 11.007
1 3.9685 16.5071 11.007
1 3.9864 17.3174 10.2124
1 3.19718 16.4805 10.2031
1 4.7622 17.3008 11.007
1 5.5559 16.5071 11.007
1 5.53242 17.3287 10.205
1 4.76509 16.5114 10.216
1 6.3496 17.3008 11.007
1 7.1433 16.5071 11.007
1 7.13795 17.3426 10.2423
1 6.34081 16.533 10.2175
1 7.93701 17.3008 11.007
1 8.73071 16.5071 11.007
1 8.72574 17.3087 10.2021
1 7.9036 16.4918 10.2227
1 9.52441 17.3008 11.007
1 10.3181 16.5071 11.007
1 10.2956 17.3333 10.2169
1 9.51392 16.5072 10.2073
1 11.1118 17.3008 11.007
1 11.9055 16.5071 11.007
1 11.8942 17.3234 10.2272
1 11.0982 16.5529 10.2281
1 12.6992 17.3008 11.007
1 13.4929 16.5071 11.007
1 13.49 17.3166 10.195
1 12.7063 16.5121 10.2154
1 14.2866 17.3008 11.007
1 15.0803 16.5071 11.007
1 15.0686 17.2964 10.2008
1 14.2905 16.5167 10.2136
1 15.874 17.3008 11.007
1 16.6677 16.5071 11.007
1 16.6741 17.3351 10.2146
1 15.8558 16.5019 10.2501
1 17.4614 17.3008 11.007
1 18.2551 16.5071 11.007
1 18.2543 17.2951 10.2192
1 17.4721 16.4811 10.2098
1 19.0488 17.3008 11.007
1 19.8425 16.5071 11.007
1 19.8309 17.3118 10.2266
1 19.0589 16.491 10.1921
1 20.6362 17.3008 11.007
1 21.4299 16.5071 11.007
1 21.4354 17.2787 10.2004
1 20.6485 16.4898 10.2062
1 22.2236 17.3008 11.007
1 23.0173 16.5071 11.007
1 23.0279 17.3046 10.2122
1 22.2279 16.5027 10.2147
1 23.811 17.3008 11.007
1 24.6047 16.5071 11.007
1 24.5983 17.302 10.2076
1 23.8198 16.4892 10.2226
1 25.3984 17.3008 11.007
1 26.1921 16.5071 11.007
1 26.2089 17.294 10.2276
1 25.3692 16.4838 10.2055
1 26.9858 17.3008 11.007
1 27.7795 16.5071 11.007
1 27.7687 17.2753 10.2036
1 26.9835 16.4973 10.2264
1 28.5732 17.3008 11.007
1 29.3669 16.5071 11.007
1 29.3097 17.2638 10.1735
1 28.5349 16.5101 10.2114
1 30 15.7134 11.007
1 0.793701 14.9197 11.007
1 0.814634 15.7159 10.1846
1 0.0835564 14.9264 10.1797
1 1.5874 15.7134 11.007
1 2.3811 14.9197 11.007
1 2.38123 15.7325 10.2037
1 1.59347 14.9243 10.2083
1 3.1748 15.7134 11.007
1 3.9685 14.9197 11.007
1 3.97351 15.7284 10.2204
1 3.17855 14.9614 10.2328
1 4.7622 15.7134 11.007
1 5.5559 14.9197 11.007
1 5.55584 15.7179 10.2356
1 4.7724 14.9269 10.2346
1 6.3496 15.7134 11.007
1 7.1433 14.9197 11.007
1 7.15047 15.7129 10.2059
1 6.35093 14.9215 10.221
1 7.93701 15.7134 11.007
1 8.73071 14.9197 11.007
1 8.7226 15.7161 10.1867
1 7.93172 14.9066 10.2006
1 9.52441 15.7134 11.007
1 10.3181 14.9197 11.007
1 10.3283 15.7232 10.1922
1 9.52419 14.9007 10.2267
1 11.1118 15.7134 11.007
1 11.9055 14.9197 11.007
1 11.8968 15.7069 10.2233
1 11.0798 14.9284 10.2297
1 12.6992 15.7134 11.007
1 13.4929 14.9197 11.007
1 13.4955 15.7418 10.2102
1 12.6924 14.9341 10.2507
1 14.2866 15.7134 11.007
1 15.0803 14.9197 11.007
1 15.0771 15.7213 10.2376
1 14.2662 14.9056 10.226
1 15.874 15.7134 11.007
1 16.6677 14.9197 11.007
1 16.6903 15.6861 10.2274
1 15.8819 14.9439 10.2051
1 17.4614 15.7134 11.007
1 18.2551 14.9197 11.007
1 18.2631 15.6986 10.2059
1 17.4942 14.9045 10.2034
1 19.0488 15.7134 11.007
1 19.8425 14.9197 11.007
1 19.861 15.6972 10.1968
1 19.0294 14.9139 10.227
1 20.6362 15.7134 11.007
1 21.4299 14.9197 11.007
1 21.4371 15.7209 10.189
1 20.6149 14.899 10.1882
1 22.2236 15.7134 11.007
1 23.0173 14.9197 11.007
1 22.9886 15.7043 10.2189
1 22.2237 14.9449 10.2223
1 23.811 15.7134 11.007
1 24.6047 14.9197 11.007
1 24.6034 15.7223 10.2609
1 23.7757 14.9108 10.2182
1 25.3984 15.7134 11.007
1 26.1921 14.9197 11.007
1 26.1746 15.706 10.2073
1 25.4104 14.9067 10.2106
1 26.9858 15.7134 11.007
1 27.7795 14.9197 11.007
1 27.7569 15.6975 10.2337
1 26.9748 14.908 10.231
1 28.5732 15.7134 11.007
1 29.3669 14.9197 11.007
1 29.3075 15.6939 10.1681
1 28.5711 14.9116 10.2295
1 30 14.126 11.007
1 0.793701 13.3323 11.007
1 0.81514 14.1219 10.1814
1 0.0370578 13.3219 10.1524
1 1.5874 14.126 11.007
1 2.3811 13.3323 11.007
1 2.38267 14.1246 10.1953
1 1.6002 13.3368 10.1987
1 3.1748 14.126 11.007
1 3.9685 13.3323 11.007
1 3.96818 14.1322 10.2152
1 3.18285 13.3312 10.2064
1 4.7622 14.126 11.007
1 5.5559 13.3323 11.007
1 5.54967 14.1103 10.2122
1 4.78178 13.3636 10.2293
1 6.3496 14.126 11.007
1 7.1433 13.3323 11.007
1 7.14001 14.1053 10.1998
1 6.34419 13.347 10.2368
1 7.93701 14.126 11.007
1 8.73071 13.3323 11.007
1 8.75958 14.1267 10.22
1 7.92254 13.3371 10.2066
1 9.52441 14.126 11.007
1 10.3181 13.3323 11.007
1 10.336 14.1301 10.2153
1 9.51089 13.3328 10.198
1 11.1118 14.126 11.007
1 11.9055 13.3323 11.007
1 11.923 14.1201 10.2451
1 11.1006 13.3244 10.2145
1 12.6992 14.126 11.007
1 13.4929 13.3323 11.007
1 13.4996 14.1308 10.22
1 12.7139 13.352 10.1951
1 14.2866 14.126 11.007
1 15.0803 13.3323 11.007
1 15.0685 14.1499 10.1857
1 14.291 13.3199 10.1928
1 15.874 14.126 11.007
1 16.6677 13.3323 11.007
1 16.6584 14.1289 10.2351
1 15.8706 13.3347 10.231
1 17.4614 14.126 11.007
1 18.2551 13.3323 11.007
1 18.2471 14.0916 10.2446
1 17.4507 13.3264 10.2275
1 19.0488 14.126 11.007
1 19.8425 13.3323 11.007
1 19.8419 14.1467 10.2322
1 19.0756 13.354 10.2179
1 20.6362 14.126 11.007
1 21.4299 13.3323 11.007
1 21.4348 14.1424 10.2206
1 20.614 13.3292 10.214
1 22.2236 14.126 11.007
1 23.0173 13.3323 11.007
1 23.019 14.1206 10.2313
1 22.238 13.3384 10.2216
1 23.811 14.126 11.007
1 24.6047 13.3323 11.007
1 24.5931 14.1124 10.211
1 23.8051 13.3343 10.2247
1 25.3984 14.126 11.007
1 26.1921 13.3323 11.007
1 26.1905 14.1107 10.2164
1 25.3844 13.3388 10.2009
1 26.9858 14.126 11.007
1 27.7795 13.3323 11.007
1 27.7795 14.11 10.2133
1 26.9935 13.3256 10.2236
1 28.5732 14.126 11.007
1 29.3669 13.3323 11.007
1 29.3118 14.1189 10.194
1 28.5567 13.308 10.2025
1 30 12.5386 11.007
1 0.793701 11.7449 11.007
1 0.829037 12.5481 10.2068
1 0.116781 11.7485 10.1812
1 1.5874 12.5386 11.007
1 2.3811 11.7449 11.007
1 2.38902 12.5359 10.204
1 1.58687 11.735 10.222
1 3.1748 12.5386 11.007
1 3.9685 11.7449 11.007
1 3.96719 12.5415 10.2326
1 3.17147 11.7463 10.2144
1 4.7622 12.5386 11.007
1 5.5559 11.7449 11.007
1 5.5564 12.5349 10.2029
1 4.78351 11.7417 10.2271
1 6.3496 12.5386 11.007
1 7.1433 11.7449 11.007
1 7.13081 12.5462 10.2058
1 6.37131 11.7516 10.216
1 7.93701 12.5386 11.007
1 8.73071 11.7449 11.007
1 8.71579 12.5437 10.2052
1 7.95229 11.7399 10.2118
1 9.52441 12.5386 11.007
1 10.3181 11.7449 11.007
1 10.3066 12.5511 10.2038
1 9.52951 11.7619 10.2227
1 11.1118 12.5386 11.007
1 11.9055 11.7449 11.007
1 11.9155 12.5158 10.2119
1 11.0847 11.7685 10.1932
1 12.6992 12.5386 11.007
1 13.4929 11.7449 11.007
1 13.4916 12.5212 10.2143
1 12.6903 11.7243 10.2208
1 14.2866 12.5386 11.007
1 15.0803 11.7449 11.007
1 15.1006 12.5414 10.2061
1 14.2937 11.7537 10.2016
1 15.874 12.5386 11.007
1 16.6677 11.7449 11.007
1 16.6808 12.5457 10.2104
1 15.8844 11.7221 10.2133
1 17.4614 12.5386 11.007
1 18.2551 11.7449 11.007
1 18.2529 12.5384 10.2231
1 17.4509 11.7209 10.2028
1 19.0488 12.5386 11.007
1 19.8425 11.7449 11.007
1 19.8422 12.5457 10.1911
1 19.0509 11.7579 10.23
1 20.6362 12.5386 11.007
1 21.4299 11.7449 11.007
1 21.4453 12.5541 10.2097
1 20.6299 11.7402 10.2294
1 22.2236 12.5386 11.007
1 23.0173 11.7449 11.007
1 23.0197 12.5449 10.2186
1 22.2361 11.7277 10.2192
1 23.811 12.5386 11.007
1 24.6047 11.7449 11.007
1 24.5974 12.5486 10.2224
1 23.8194 11.7461 10.213
1 25.3984 12.5386 11.007
1 26.1921 11.7449 11.007
1 26.1864 12.5464 10.2142
1 25.4098 11.7457 10.2241
1 26.9858 12.5386 11.007
1 27.7795 11.7449 11.007
1 27.7474 12.5372 10.2345
1 26.9763 11.7273 10.2011
1 28.5732 12.5386 11.007
1 29.3669 11.7449 11.007
1 29.2995 12.4899 10.1842
1 28.5333 11.7517 10.2225
1 30 10.9512 11.007
1 0.793701 10.1575 11.007
1 0.831304 10.9424 10.2368
1 0.0865923 10.1353 10.1778
1 1.5874 10.9512 11.007
1 2.3811 10.1575 11.007
1 2.36902 10.9406 10.2028
1 1.59949 10.1169 10.1991
1 3.1748 10.9512 11.007
1 3.9685 10.1575 11.007
1 4.0074 10.9552 10.2173
1 3.16309 10.1702 10.2133
1 4.7622 10.9512 11.007
1 5.5559 10.1575 11.007
1 5.54867 10.9408 10.2507
1 4.76044 10.1568 10.2308
1 6.3496 10.9512 11.007
1 7.1433 10.1575 11.007
1 7.17747 10.9422 10.2234
1 6.36215 10.1835 10.2244
1 7.93701 10.9512 11.007
1 8.73071 10.1575 11.007
1 8.73539 10.9467 10.2079
1 7.96625 10.1595 10.2415
1 9.52441 10.9512 11.007
1 10.3181 10.1575 11.007
1 10.3243 10.9697 10.2247
1 9.52812 10.1524 10.2062
1 11.1118 10.9512 11.007
1 11.9055 10.1575 11.007
1 11.8826 10.9663 10.222
1 11.1208 10.1337 10.2012
1 12.6992 10.9512 11.007
1 13.4929 10.1575 11.007
1 13.49 10.929 10.2125
1 12.6966 10.1406 10.2066
1 14.2866 10.9512 11.007
1 15.0803 10.1575 11.007
1 15.1017 10.9559 10.2043
1 14.3339 10.1672 10.2361
1 15.874 10.9512 11.007
1 16.6677 10.1575 11.007
1 16.6522 10.9197 10.2331
1 15.8561 10.1438 10.2118
1 17.4614 10.9512 11.007
1 18.2551 10.1575 11.007
1 18.2792 10.9272 10.2311
1 17.4951 10.1316 10.2153
1 19.0488 10.9512 11.007
1 19.8425 10.1575 11.007
1 19.8515 10.9475 10.2246
1 19.0514 10.1367 10.2271
1 20.6362 10.9512 11.007
1 21.4299 10.1575 11.007
1 21.4398 10.9641 10.2108
1 20.6313 10.1876 10.2405
1 22.2236 10.9512 11.007
1 23.0173 10.1575 11.007
1 23.0244 10.9341 10.2053
1 22.215 10.1508 10.2268
1 23.811 10.9512 11.007
1 24.6047 10.1575 11.007
1 24.617 10.9577 10.2041
1 23.8189 10.1678 10.2308
1 25.3984 10.9512 11.007
1 26.1921 10.1575 11.007
1 26.1564 10.9582 10.2202
1 25.379 10.1679 10.2148
1 26.9858 10.9512 11.007
1 27.7795 10.1575 11.007
1 27.7526 10.9379 10.2177
1 26.9441 10.1395 10.2138
1 28.5732 10.9512 11.007
1 29.3669 10.1575 11.007
1 29.3198 10.949 10.1746
1 28.5481 10.158 10.2171
1 30 9.36379 11.007
1 0.793701 8.57009 11.007
1 0.811183 9.34128 10.1914
1 0.075885 8.54892 10.1863
1 1.5874 9.36379 11.007
1 2.3811 8.57009 11.007
1 2.39054 9.37586 10.2014
1 1.61397 8.57395 10.2034
1 3.1748 9.36379 11.007
1 3.9685 8.57009 11.007
1 3.94032 9.36733 10.2187
1 3.17177 8.58694 10.2187
1 4.7622 9.36379 11.007
1 5.5559 8.57009 11.007
1 5.55219 9.40095 10.2152
1 4.75834 8.59846 10.2182
1 6.3496 9.36379 11.007
1 7.1433 8.57009 11.007
1 7.13645 9.35401 10.1991
1 6.33236 8.58196 10.1917
1 7.93701 9.36379 11.007
1 8.73071 8.57009 11.007
1 8.75742 9.3663 10.215
1 7.93719 8.55525 10.2297
1 9.52441 9.36379 11.007
1 10.3181 8.57009 11.007
1 10.3278 9.35891 10.2089
1 9.53734 8.56138 10.2123
1 11.1118 9.36379 11.007
1 11.9055 8.57009 11.007
1 11.9096 9.35148 10.2266
1 11.114 8.57529 10.2002
1 12.6992 9.36379 11.007
1 13.4929 8.57009 11.007
1 13.4883 9.36112 10.2046
1 12.6776 8.5543 10.2089
1 14.2866 9.36379 11.007
1 15.0803 8.57009 11.007
1 15.1044 9.34884 10.2052
1 14.274 8.55762 10.2235
1 15.874 9.36379 11.007
1 16.6677 8.57009 11.007
1 16.6495 9.33639 10.2174
1 15.8589 8.5461 10.241
1 17.4614 9.36379 11.007
1 18.2551 8.57009 11.007
1 18.262 9.35077 10.2122
1 17.4768 8.5568 10.2172
1 19.0488 9.36379 11.007
1 19.8425 8.57009 11.007
1 19.855 9.361 10.2331
1 19.0638 8.57826 10.1896
1 20.6362 9.36379 11.007
1 21.4299 8.57009 11.007
1 21.4538 9.36582 10.2376
1 20.6353 8.57313 10.1977
1 22.2236 9.36379 11.007
1 23.0173 8.57009 11.007
1 23.0291 9.36867 10.2
1 22.2524 8.58895 10.2146
1 23.811 9.36379 11.007
1 24.6047 8.57009 11.007
1 24.5968 9.38423 10.2058
1 23.7759 8.59853 10.2119
1 25.3984 9.36379 11.007
1 26.1921 8.57009 11.007
1 26.18 9.36667 10.2134
1 25.3787 8.59967 10.2298
1 26.9858 9.36379 11.007
1 27.7795 8.57009 11.007
1 27.7535 9.36251 10.2033
1 26.9779 8.57164 10.2156
1 28.5732 9.36379 11.007
1 29.3669 8.57009 11.007
1 29.2895 9.3752 10.1924
1 28.5305 8.57436 10.1914
1 30 7.77639 11.007
1 0.793701 6.98268 11.007
1 0.814803 7.77881 10.2188
1 0.080445 6.98518 10.2044
1 1.5874 7.77639 11.007
1 2.3811 6.98268 11.007
1 2.40421 7.79296 10.2016
1 1.62155 6.97893 10.1878
1 3.1748 7.77639 11.007
1 3.9685 6.98268 11.007
1 3.97241 7.8026 10.209
1 3.19519 6.9766 10.1908
1 4.7622 7.77639 11.007
1 5.5559 6.98268 11.007
1 5.5264 7.77057 10.2256
1 4.74723 6.97662 10.1867
1 6.3496 7.77639 11.007
1 7.1433 6.98268 11.007
1 7.12709 7.7562 10.2231
1 6.35358 6.98667 10.2171
1 7.93701 7.77639 11.007
1 8.73071 6.98268 11.007
1 8.73594 7.77586 10.2282
1 7.9729 6.96564 10.2258
1 9.52441 7.77639 11.007
1 10.3181 6.98268 11.007
1 10.3094 7.78046 10.2098
1 9.51151 6.98055 10.2083
1 11.1118 7.77639 11.007
1 11.9055 6.98268 11.007
1 11.8902 7.78962 10.2123
1 11.0876 6.99834 10.2184
1 12.6992 7.77639 11.007
1 13.4929 6.98268 11.007
1 13.5109 7.7922 10.1973
1 12.7029 7.02402 10.2137
1 14.2866 7.77639 11.007
1 15.0803 6.98268 11.007
1 15.0636 7.77294 10.1966
1 14.2755 6.97383 10.2093
1 15.874 7.77639 11.007
1 16.6677 6.98268 11.007
1 16.6417 7.78064 10.2236
1 15.8499 6.96832 10.1955
1 17.4614 7.77639 11.007
1 18.2551 6.98268 11.007
1 18.2777 7.75946 10.1865
1 17.4492 7.00592 10.2172
1 19.0488 7.77639 11.007
1 19.8425 6.98268 11.007
1 19.8589 7.79529 10.2139
1 19.0561 6.98814 10.2037
1 20.6362 7.77639 11.007
1 21.4299 6.98268 11.007
1 21.4544 7.77844 10.2098
1 20.6394 7.02288 10.2312
1 22.2236 7.77639 11.007
1 23.0173 6.98268 11.007
1 23.006 7.79735 10.2092
1 22.2209 7.0191 10.1932
1 23.811 7.77639 11.007
1 24.6047 6.98268 11.007
1 24.5728 7.78152 10.2089
1 23.7911 6.95197 10.2155
1 25.3984 7.77639 11.007
1 26.1921 6.98268 11.007
1 26.1561 7.75068 10.1896
1 25.3973 6.98025 10.1995
1 26.9858 7.77639 11.007
1 27.7795 6.98268 11.007
1 27.7577 7.79168 10.2214
1 26.9862 6.97547 10.2181
1 28.5732 7.77639 11.007
1 29.3669 6.98268 11.007
1 29.282 7.77643 10.2001
1 28.5302 6.97573 10.2049
1 30 6.18898 11.007
1 0.793701 5.39528 11.007
1 0.825036 6.18024 10.195
1 0.0559342 5.38361 10.1659
1 1.5874 6.18898 11.007
1 2.3811 5.39528 11.007
1 2.40358 6.1726 10.202
1 1.59242 5.37705 10.213
1 3.1748 6.18898 11.007
1 3.9685 5.39528 11.007
1 3.99391 6.19369 10.201
1 3.18907 5.39799 10.2202
1 4.7622 6.18898 11.007
1 5.5559 5.39528 11.007
1 5.54483 6.19676 10.217
1 4.78153 5.39187 10.217
1 6.3496 6.18898 11.007
1 7.1433 5.39528 11.007
1 7.17047 6.19244 10.2133
1 6.36289 5.38392 10.2181
1 7.93701 6.18898 11.007
1 8.73071 5.39528 11.007
1 8.73684 6.16647 10.1988
1 7.94139 5.40488 10.2439
1 9.52441 6.18898 11.007
1 10.3181 5.39528 11.007
1 10.3158 6.20465 10.2077
1 9.54751 5.40308 10.2065
1 11.1118 6.18898 11.007
1 11.9055 5.39528 11.007
1 11.9292 6.18044 10.2206
1 11.089 5.37283 10.1978
1 12.6992 6.18898 11.007
1 13.4929 5.39528 11.007
1 13.4982 6.20599 10.2153
1 12.7026 5.38281 10.2076
1 14.2866 6.18898 11.007
1 15.0803 5.39528 11.007
1 15.065 6.19785 10.2229
1 14.2981 5.43623 10.2059
1 15.874 6.18898 11.007
1 16.6677 5.39528 11.007
1 16.6738 6.18298 10.2046
1 15.8937 5.42416 10.2245
1 17.4614 6.18898 11.007
1 18.2551 5.39528 11.007
1 18.2487 6.19783 10.1981
1 17.4807 5.39478 10.2077