9376
Atoms. Timestep: 4000000
1 30 3.55271e-15 11.1555
1 0.793701 29.2063 11.1555
1 0.839525 29.9485 10.3315
1 0.0591 29.2031 10.3106
1 1.5874 3.55271e-15 11.1555
1 2.3811 29.2063 11.1555
1 2.42995 29.946 10.3442
1 1.61731 29.2173 10.3653
1 3.1748 3.55271e-15 11.1555
1 3.9685 29.2063 11.1555
1 3.9821 29.9268 10.3393
1 3.2098 29.1783 10.3694
1 4.7622 3.55271e-15 11.1555
1 5.5559 29.2063 11.1555
1 5.5563 29.9274 10.3232
1 4.77987 29.1876 10.357
1 6.3496 3.55271e-15 11.1555
1 7.1433 29.2063 11.1555
1 7.13175 29.9442 10.3447
1 6.3736 29.182 10.369
1 7.93701 3.55271e-15 11.1555
1 8.73071 29.2063 11.1555
1 8.7333 29.9381 10.3381
1 7.94273 29.1644 10.3692
1 9.52441 3.55271e-15 11.1555
1 10.3181 29.2063 11.1555
1 10.3043 29.9198 10.3151
1 9.51616 29.1623 10.3584
1 11.1118 3.55271e-15 11.1555
1 11.9055 29.2063 11.1555
1 11.9191 29.9162 10.3369
1 11.126 29.1994 10.3558
1 12.6992 3.55271e-15 11.1555
1 13.4929 29.2063 11.1555
1 13.4875 29.96 10.3161
1 12.7107 29.1841 10.3489
1 14.2866 3.55271e-15 11.1555
1 15.0803 29.2063 11.1555
1 15.0862 29.9063 10.332
1 14.2674 29.2024 10.3633
1 15.874 3.55271e-15 11.1555
1 16.6677 29.2063 11.1555
1 16.6945 29.928 10.3367
1 15.8653 29.1719 10.3468
1 17.4614 3.55271e-15 11.1555
1 18.2551 29.2063 11.1555
1 18.2487 29.9092 10.3405
1 17.4569 29.1638 10.3845
1 19.0488 3.55271e-15 11.1555
1 19.8425 29.2063 11.1555
1 19.8456 29.9362 10.3155
1 19.0685 29.1459 10.3866
1 20.6362 3.55271e-15 11.1555
1 21.4299 29.2063 11.1555
1 21.4257 29.9355 10.3115
1 20.6118 29.1694 10.36
1 22.2236 3.55271e-15 11.1555
1 23.0173 29.2063 11.1555
1 23.0339 29.9468 10.3363
1 22.2378 29.1915 10.3338
1 23.811 3.55271e-15 11.1555
1 24.6047 29.2063 11.1555
1 24.5921 29.9016 10.3335
1 23.8116 29.1545 10.3566
1 25.3984 3.55271e-15 11.1555
1 26.1921 29.2063 11.1555
1 26.1803 29.9208 10.334
1 25.3983 29.1608 10.3349
1 26.9858 3.55271e-15 11.1555
1 27.7795 29.2063 11.1555
1 27.7305 29.943 10.3258
1 26.9632 29.1816 10.363
1 28.5732 3.55271e-15 11.1555
1 29.3669 29.2063 11.1555
1 29.3006 29.9024 10.2614
1 28.5282 29.1623 10.3473
1 30 28.4126 11.1555
1 0.793701 27.6189 11.1555
1 0.827569 28.4257 10.3442
1 0.0671446 27.61 10.3115
1 1.5874 28.4126 11.1555
1 2.3811 27.6189 11.1555
1 2.40606 28.4166 10.3774
1 1.6078 27.6166 10.3645
1 3.1748 28.4126 11.1555
1 3.9685 27.6189 11.1555
1 3.99179 28.3876 10.3822
1 3.15719 27.6231 10.3881
1 4.7622 28.4126 11.1555
1 5.5559 27.6189 11.1555
1 5.56594 28.3801 10.3757
1 4.79746 27.5952 10.3802
1 6.3496 28.4126 11.1555
1 7.1433 27.6189 11.1555
1 7.12698 28.4043 10.3689
1 6.3436 27.6043 10.3402
1 7.93701 28.4126 11.1555
1 8.73071 27.6189 11.1555
1 8.71707 28.3766 10.3551
1 7.91486 27.5923 10.3562
1 9.52441 28.4126 11.1555
1 10.3181 27.6189 11.1555
1 10.3212 28.4079 10.3676
1 9.53892 27.5917 10.3442
1 11.1118 28.4126 11.1555
1 11.9055 27.6189 11.1555
1 11.9196 28.382 10.3416
1 11.1251 27.6061 10.3452
1 12.6992 28.4126 11.1555
1 13.4929 27.6189 11.1555
1 13.4948 28.3949 10.3588
1 12.7054 27.5745 10.3692
1 14.2866 28.4126 11.1555
1 15.0803 27.6189 11.1555
1 15.0705 28.4124 10.3452
1 14.2877 27.6039 10.3671
1 15.874 28.4126 11.1555
1 16.6677 27.6189 11.1555
1 16.6551 28.3878 10.3826
1 15.8593 27.6017 10.3407
1 17.4614 28.4126 11.1555
1 18.2551 27.6189 11.1555
1 18.2421 28.4005 10.3781
1 17.4676 27.6186 10.3793
1 19.0488 28.4126 11.1555
1 19.8425 27.6189 11.1555
1 19.856 28.3835 10.3462
1 19.0481 27.5861 10.3604
1 20.6362 28.4126 11.1555
1 21.4299 27.6189 11.1555
1 21.4156 28.3941 10.3391
1 20.637 27.5791 10.3495
1 22.2236 28.4126 11.1555
1 23.0173 27.6189 11.1555
1 23.0237 28.4014 10.3595
1 22.2092 27.6021 10.3403
1 23.811 28.4126 11.1555
1 24.6047 27.6189 11.1555
1 24.6069 28.3965 10.3623
1 23.8136 27.6237 10.3572
1 25.3984 28.4126 11.1555
1 26.1921 27.6189 11.1555
1 26.1925 28.4002 10.3772
1 25.404 27.5958 10.373
1 26.9858 28.4126 11.1555
1 27.7795 27.6189 11.1555
1 27.7687 28.39 10.361
1 26.9846 27.6221 10.3625
1 28.5732 28.4126 11.1555
1 29.3669 27.6189 11.1555
1 29.2952 28.4069 10.3144
1 28.5663 27.6232 10.345
1 30 26.8252 11.1555
1 0.793701 26.0315 11.1555
1 0.835785 26.8275 10.366
1 0.0545393 26.0421 10.3233
1 1.5874 26.8252 11.1555
1 2.3811 26.0315 11.1555
1 2.38185 26.8319 10.3654
1 1.60039 26.0366 10.3425
1 3.1748 26.8252 11.1555
1 3.9685 26.0315 11.1555
1 3.95773 26.8444 10.3666
1 3.18586 26.0621 10.3576
1 4.7622 26.8252 11.1555
1 5.5559 26.0315 11.1555
1 5.56272 26.7971 10.3678
1 4.76467 26.0266 10.3547
1 6.3496 26.8252 11.1555
1 7.1433 26.0315 11.1555
1 7.12747 26.8188 10.3574
1 6.34458 26.0422 10.361
1 7.93701 26.8252 11.1555
1 8.73071 26.0315 11.1555
1 8.7546 26.8305 10.3665
1 7.955 26.0537 10.3837
1 9.52441 26.8252 11.1555
1 10.3181 26.0315 11.1555
1 10.3198 26.8266 10.3645
1 9.51877 26.0176 10.3669
1 11.1118 26.8252 11.1555
1 11.9055 26.0315 11.1555
1 11.907 26.8146 10.3689
1 11.1054 26.0323 10.3648
1 12.6992 26.8252 11.1555
1 13.4929 26.0315 11.1555
1 13.5025 26.8047 10.385
1 12.6755 26.0055 10.3495
1 14.2866 26.8252 11.1555
1 15.0803 26.0315 11.1555
1 15.0861 26.8003 10.3715
1 14.2655 26.0162 10.3638
1 15.874 26.8252 11.1555
1 16.6677 26.0315 11.1555
1 16.6699 26.8217 10.3393
1 15.8665 26.0238 10.3501
1 17.4614 26.8252 11.1555
1 18.2551 26.0315 11.1555
1 18.2536 26.8135 10.3868
1 17.4518 25.9983 10.3753
1 19.0488 26.8252 11.1555
1 19.8425 26.0315 11.1555
1 19.8291 26.7983 10.3543
1 19.0625 25.9909 10.3585
1 20.6362 26.8252 11.1555
1 21.4299 26.0315 11.1555
1 21.433 26.8166 10.3594
1 20.6494 26.0262 10.3859
1 22.2236 26.8252 11.1555
1 23.0173 26.0315 11.1555
1 23.0108 26.8319 10.3343
1 22.2364 26.0278 10.3786
1 23.811 26.8252 11.1555
1 24.6047 26.0315 11.1555
1 24.5722 26.8222 10.363
1 23.7896 26.0299 10.3403
1 25.3984 26.8252 11.1555
1 26.1921 26.0315 11.1555
1 26.1926 26.8143 10.363
1 25.3839 26.0352 10.3632
1 26.9858 26.8252 11.1555
1 27.7795 26.0315 11.1555
1 27.7956 26.8077 10.3541
1 26.9894 26.0263 10.3622
1 28.5732 26.8252 11.1555
1 29.3669 26.0315 11.1555
1 29.3054 26.806 10.3286
1 28.5512 26.0283 10.346
1 30 25.2378 11.1555
1 0.793701 24.4441 11.1555
1 0.823171 25.2305 10.355
1 0.0888801 24.422 10.3539
1 1.5874 25.2378 11.1555
1 2.3811 24.4441 11.1555
1 2.38706 25.2508 10.356
1 1.62161 24.4302 10.3483
1 3.1748 25.2378 11.1555
1 3.9685 24.4441 11.1555
1 3.93815 25.232 10.3731
1 3.17602 24.4363 10.3509
1 4.7622 25.2378 11.1555
1 5.5559 24.4441 11.1555
1 5.54742 25.2574 10.3905
1 4.75372 24.4371 10.3688
1 6.3496 25.2378 11.1555
1 7.1433 24.4441 11.1555
1 7.16506 25.2506 10.3653
1 6.36337 24.4577 10.3511
1 7.93701 25.2378 11.1555
1 8.73071 24.4441 11.1555
1 8.71697 25.2255 10.3446
1 7.94026 24.458 10.3589
1 9.52441 25.2378 11.1555
1 10.3181 24.4441 11.1555
1 10.3188 25.2406 10.3611
1 9.53352 24.4381 10.363
1 11.1118 25.2378 11.1555
1 11.9055 24.4441 11.1555
1 11.8903 25.2277 10.3691
1 11.0881 24.4231 10.3568
1 12.6992 25.2378 11.1555
1 13.4929 24.4441 11.1555
1 13.4768 25.252 10.3762
1 12.704 24.4386 10.3438
1 14.2866 25.2378 11.1555
1 15.0803 24.4441 11.1555
1 15.0769 25.2332 10.364
1 14.2877 24.442 10.3371
1 15.874 25.2378 11.1555
1 16.6677 24.4441 11.1555
1 16.6639 25.2134 10.365
1 15.8761 24.4423 10.3692
1 17.4614 25.2378 11.1555
1 18.2551 24.4441 11.1555
1 18.2298 25.2252 10.347
1 17.4621 24.42 10.3726
1 19.0488 25.2378 11.1555
1 19.8425 24.4441 11.1555
1 19.8503 25.2205 10.3648
1 19.0569 24.4318 10.3653
1 20.6362 25.2378 11.1555
1 21.4299 24.4441 11.1555
1 21.4324 25.2325 10.3666
1 20.6563 24.4432 10.3844
1 22.2236 25.2378 11.1555
1 23.0173 24.4441 11.1555
1 23.0366 25.2275 10.3724
1 22.2429 24.4428 10.3652
1 23.811 25.2378 11.1555
1 24.6047 24.4441 11.1555
1 24.5985 25.2289 10.3683
1 23.7992 24.4245 10.3553
1 25.3984 25.2378 11.1555
1 26.1921 24.4441 11.1555
1 26.2059 25.2297 10.3809
1 25.4027 24.4123 10.3699
1 26.9858 25.2378 11.1555
1 27.7795 24.4441 11.1555
1 27.7853 25.2476 10.3638
1 26.981 24.4562 10.3708
1 28.5732 25.2378 11.1555
1 29.3669 24.4441 11.1555
1 29.2973 25.2197 10.3168
1 28.5398 24.4429 10.3392
1 30 23.6504 11.1555
1 0.793701 22.8567 11.1555
1 0.831239 23.6515 10.3642
1 0.053922 22.8366 10.3261
1 1.5874 23.6504 11.1555
1 2.3811 22.8567 11.1555
1 2.42042 23.6498 10.3661
1 1.61173 22.8608 10.3531
1 3.1748 23.6504 11.1555
1 3.9685 22.8567 11.1555
1 3.96748 23.6422 10.3802
1 3.19953 22.8543 10.3847
1 4.7622 23.6504 11.1555
1 5.5559 22.8567 11.1555
1 5.55127 23.6624 10.3356
1 4.76194 22.8792 10.3769
1 6.3496 23.6504 11.1555
1 7.1433 22.8567 11.1555
1 7.16846 23.6636 10.356
1 6.34296 22.8385 10.3799
1 7.93701 23.6504 11.1555
1 8.73071 22.8567 11.1555
1 8.73429 23.643 10.354
1 7.93281 22.8549 10.3737
1 9.52441 23.6504 11.1555
1 10.3181 22.8567 11.1555
1 10.3257 23.6351 10.3415
1 9.53624 22.8465 10.3526
1 11.1118 23.6504 11.1555
1 11.9055 22.8567 11.1555
1 11.8926 23.6624 10.3676
1 11.1132 22.829 10.3558
1 12.6992 23.6504 11.1555
1 13.4929 22.8567 11.1555
1 13.4978 23.6464 10.3604
1 12.6887 22.8906 10.3627
1 14.2866 23.6504 11.1555
1 15.0803 22.8567 11.1555
1 15.0874 23.6517 10.3461
1 14.3159 22.864 10.3671
1 15.874 23.6504 11.1555
1 16.6677 22.8567 11.1555
1 16.6596 23.6586 10.3715
1 15.8882 22.8558 10.3798
1 17.4614 23.6504 11.1555
1 18.2551 22.8567 11.1555
1 18.2695 23.6443 10.3659
1 17.4696 22.8692 10.384
1 19.0488 23.6504 11.1555
1 19.8425 22.8567 11.1555
1 19.8711 23.6436 10.3765
1 19.0429 22.8549 10.3679
1 20.6362 23.6504 11.1555
1 21.4299 22.8567 11.1555
1 21.4258 23.6324 10.3643
1 20.6503 22.8559 10.3675
1 22.2236 23.6504 11.1555
1 23.0173 22.8567 11.1555
1 23.011 23.6453 10.3582
1 22.2083 22.8601 10.3694
1 23.811 23.6504 11.1555
1 24.6047 22.8567 11.1555
1 24.6125 23.658 10.364
1 23.7973 22.8418 10.3673
1 25.3984 23.6504 11.1555
1 26.1921 22.8567 11.1555
1 26.1907 23.6307 10.3704
1 25.405 22.834 10.3802
1 26.9858 23.6504 11.1555
1 27.7795 22.8567 11.1555
1 27.7763 23.6766 10.3451
1 26.9845 22.8231 10.3757
1 28.5732 23.6504 11.1555
1 29.3669 22.8567 11.1555
1 29.3315 23.6408 10.3353
1 28.5493 22.856 10.3561
1 30 22.063 11.1555
1 0.793701 21.2693 11.1555
1 0.819947 22.0636 10.3769
1 0.0518569 21.275 10.3434
1 1.5874 22.063 11.1555
1 2.3811 21.2693 11.1555
1 2.38215 22.0698 10.3725
1 1.61523 21.2915 10.3651
1 3.1748 22.063 11.1555
1 3.9685 21.2693 11.1555
1 3.97753 22.0814 10.3762
1 3.1801 21.2878 10.3543
1 4.7622 22.063 11.1555
1 5.5559 21.2693 11.1555
1 5.56662 22.0588 10.3655
1 4.73199 21.2783 10.3516
1 6.3496 22.063 11.1555
1 7.1433 21.2693 11.1555
1 7.13201 22.0519 10.3621
1 6.34732 21.2578 10.3646
1 7.93701 22.063 11.1555
1 8.73071 21.2693 11.1555
1 8.72912 22.0553 10.3451
1 7.94519 21.238 10.3681
1 9.52441 22.063 11.1555
1 10.3181 21.2693 11.1555
1 10.3194 22.0474 10.3499
1 9.49768 21.2463 10.3417
1 11.1118 22.063 11.1555
1 11.9055 21.2693 11.1555
1 11.8983 22.0668 10.3807
1 11.1139 21.2781 10.3573
1 12.6992 22.063 11.1555
1 13.4929 21.2693 11.1555
1 13.498 22.0667 10.3574
1 12.713 21.2589 10.3609
1 14.2866 22.063 11.1555
1 15.0803 21.2693 11.1555
1 15.0879 22.0597 10.3737
1 14.2674 21.2739 10.3891
1 15.874 22.063 11.1555
1 16.6677 21.2693 11.1555
1 16.6891 22.0444 10.382
1 15.8654 21.2761 10.3813
1 17.4614 22.063 11.1555
1 18.2551 21.2693 11.1555
1 18.265 22.0485 10.3526
1 17.437 21.2621 10.3569
1 19.0488 22.063 11.1555
1 19.8425 21.2693 11.1555
1 19.8549 22.0646 10.3604
1 19.0475 21.2477 10.3924
1 20.6362 22.063 11.1555
1 21.4299 21.2693 11.1555
1 21.4248 22.054 10.362
1 20.6431 21.2548 10.3918
1 22.2236 22.063 11.1555
1 23.0173 21.2693 11.1555
1 22.9962 22.0929 10.3696
1 22.1996 21.2451 10.376
1 23.811 22.063 11.1555
1 24.6047 21.2693 11.1555
1 24.5916 22.0669 10.368
1 23.8196 21.2787 10.3775
1 25.3984 22.063 11.1555
1 26.1921 21.2693 11.1555
1 26.2039 22.0786 10.3617
1 25.4102 21.2851 10.3624
1 26.9858 22.063 11.1555
1 27.7795 21.2693 11.1555
1 27.7515 22.0489 10.3737
1 26.9922 21.2737 10.3676
1 28.5732 22.063 11.1555
1 29.3669 21.2693 11.1555
1 29.301 22.0583 10.3189
1 28.5589 21.2571 10.328
1 30 20.4756 11.1555
1 0.793701 19.6819 11.1555
1 0.817869 20.478 10.3619
1 0.0341565 19.688 10.3288
1 1.5874 20.4756 11.1555
1 2.3811 19.6819 11.1555
1 2.42149 20.4852 10.3776
1 1.61582 19.6898 10.3613
1 3.1748 20.4756 11.1555
1 3.9685 19.6819 11.1555
1 3.96493 20.4814 10.3649
1 3.1798 19.6858 10.3535
1 4.7622 20.4756 11.1555
1 5.5559 19.6819 11.1555
1 5.57092 20.4677 10.3576
1 4.78614 19.6518 10.357
1 6.3496 20.4756 11.1555
1 7.1433 19.6819 11.1555
1 7.13739 20.4734 10.3772
1 6.34943 19.6789 10.346
1 7.93701 20.4756 11.1555
1 8.73071 19.6819 11.1555
1 8.751 20.4815 10.354
1 7.9606 19.6916 10.3576
1 9.52441 20.4756 11.1555
1 10.3181 19.6819 11.1555
1 10.3155 20.4947 10.359
1 9.55206 19.658 10.3704
1 11.1118 20.4756 11.1555
1 11.9055 19.6819 11.1555
1 11.9091 20.4955 10.3773
1 11.1387 19.6944 10.3604
1 12.6992 20.4756 11.1555
1 13.4929 19.6819 11.1555
1 13.4755 20.4729 10.3692
1 12.6924 19.6793 10.372
1 14.2866 20.4756 11.1555
1 15.0803 19.6819 11.1555
1 15.0811 20.4996 10.3795
1 14.2911 19.685 10.36
1 15.874 20.4756 11.1555
1 16.6677 19.6819 11.1555
1 16.6779 20.486 10.3624
1 15.8783 19.6858 10.3756
1 17.4614 20.4756 11.1555
1 18.2551 19.6819 11.1555
1 18.2525 20.4679 10.3695
1 17.4769 19.689 10.3594
1 19.0488 20.4756 11.1555
1 19.8425 19.6819 11.1555
1 19.8234 20.461 10.3475
1 19.0536 19.6751 10.3496
1 20.6362 20.4756 11.1555
1 21.4299 19.6819 11.1555
1 21.4176 20.4753 10.3477
1 20.6182 19.6839 10.3614
1 22.2236 20.4756 11.1555
1 23.0173 19.6819 11.1555
1 23.0278 20.4638 10.3817
1 22.2216 19.6817 10.3466
1 23.811 20.4756 11.1555
1 24.6047 19.6819 11.1555
1 24.612 20.4947 10.3595
1 23.8044 19.6839 10.3892
1 25.3984 20.4756 11.1555
1 26.1921 19.6819 11.1555
1 26.1966 20.5113 10.3845
1 25.375 19.7078 10.3782
1 26.9858 20.4756 11.1555
1 27.7795 19.6819 11.1555
1 27.7664 20.4602 10.3635
1 26.9428 19.6836 10.372
1 28.5732 20.4756 11.1555
1 29.3669 19.6819 11.1555
1 29.33 20.4805 10.3159
1 28.5538 19.6937 10.3473
1 30 18.8882 11.1555
1 0.793701 18.0945 11.1555
1 0.80588 18.8703 10.358
1 0.0718407 18.0601 10.3498
1 1.5874 18.8882 11.1555
1 2.3811 18.0945 11.1555
1 2.41615 18.8809 10.3765
1 1.61083 18.1099 10.3548
1 3.1748 18.8882 11.1555
1 3.9685 18.0945 11.1555
1 3.96902 18.8756 10.3512
1 3.1788 18.1109 10.3532
1 4.7622 18.8882 11.1555
1 5.5559 18.0945 11.1555
1 5.58451 18.8847 10.356
1 4.78252 18.118 10.3539
1 6.3496 18.8882 11.1555
1 7.1433 18.0945 11.1555
1 7.12184 18.8764 10.362
1 6.33921 18.0783 10.36
1 7.93701 18.8882 11.1555
1 8.73071 18.0945 11.1555
1 8.72754 18.9033 10.3475
1 7.95262 18.1081 10.3708
1 9.52441 18.8882 11.1555
1 10.3181 18.0945 11.1555
1 10.3283 18.8783 10.3607
1 9.53147 18.1014 10.3541
1 11.1118 18.8882 11.1555
1 11.9055 18.0945 11.1555
1 11.9192 18.8914 10.3401
1 11.1296 18.0893 10.3507
1 12.6992 18.8882 11.1555
1 13.4929 18.0945 11.1555
1 13.4963 18.8975 10.3621
1 12.7344 18.0839 10.3901
1 14.2866 18.8882 11.1555
1 15.0803 18.0945 11.1555
1 15.0683 18.8878 10.374
1 14.275 18.0803 10.3582
1 15.874 18.8882 11.1555
1 16.6677 18.0945 11.1555
1 16.6582 18.9055 10.3791
1 15.8966 18.0757 10.3637
1 17.4614 18.8882 11.1555
1 18.2551 18.0945 11.1555
1 18.2463 18.9036 10.3452
1 17.4504 18.123 10.3837
1 19.0488 18.8882 11.1555
1 19.8425 18.0945 11.1555
1 19.8505 18.8884 10.3542
1 19.0447 18.1107 10.357
1 20.6362 18.8882 11.1555
1 21.4299 18.0945 11.1555
1 21.4312 18.8947 10.3662
1 20.6279 18.0782 10.3386
1 22.2236 18.8882 11.1555
1 23.0173 18.0945 11.1555
1 23.0103 18.8812 10.366
1 22.2087 18.0918 10.3589
1 23.811 18.8882 11.1555
1 24.6047 18.0945 11.1555
1 24.6126 18.8806 10.3544
1 23.8202 18.0743 10.3825
1 25.3984 18.8882 11.1555
1 26.1921 18.0945 11.1555
1 26.171 18.8959 10.3608
1 25.3942 18.0798 10.3743
1 26.9858 18.8882 11.1555
1 27.7795 18.0945 11.1555
1 27.7567 18.9154 10.3461
1 26.9915 18.1078 10.3663
1 28.5732 18.8882 11.1555
1 29.3669 18.0945 11.1555
1 29.3055 18.8777 10.35
1 28.5254 18.1146 10.3432
1 30 17.3008 11.1555
1 0.793701 16.5071 11.1555
1 0.819543 17.2767 10.3791
1 0.03729 16.4979 10.3203
1 1.5874 17.3008 11.1555
1 2.3811 16.5071 11.1555
1 2.39067 17.3335 10.3815
1 1.59414 16.5053 10.381
1 3.1748 17.3008 11.1555
1 3.9685 16.5071 11.1555
1 3.97894 17.3104 10.3625
1 3.19761 16.4806 10.3568
1 4.7622 17.3008 11.1555
1 5.5559 16.5071 11.1555
1 5.53397 17.3284 10.3474
1 4.76063 16.4998 10.3597
1 6.3496 17.3008 11.1555
1 7.1433 16.5071 11.1555
1 7.13944 17.3368 10.4007
1 6.33453 16.5337 10.3647
1 7.93701 17.3008 11.1555
1 8.73071 16.5071 11.1555
1 8.72615 17.3116 10.3478
1 7.90272 16.5002 10.3698
1 9.52441 17.3008 11.1555
1 10.3181 16.5071 11.1555
1 10.3031 17.3307 10.3625
1 9.52073 16.5105 10.3532
1 11.1118 17.3008 11.1555
1 11.9055 16.5071 11.1555
1 11.905 17.3185 10.3543
1 11.12 16.5496 10.373
1 12.6992 17.3008 11.1555
1 13.4929 16.5071 11.1555
1 13.4784 17.306 10.348
1 12.6859 16.5064 10.3584
1 14.2866 17.3008 11.1555
1 15.0803 16.5071 11.1555
1 15.0484 17.2945 10.3472
1 14.2857 16.5176 10.3439
1 15.874 17.3008 11.1555
1 16.6677 16.5071 11.1555
1 16.6708 17.334 10.3578
1 15.8598 16.5071 10.3778
1 17.4614 17.3008 11.1555
1 18.2551 16.5071 11.1555
1 18.2466 17.3043 10.3721
1 17.4566 16.4881 10.3631
1 19.0488 17.3008 11.1555
1 19.8425 16.5071 11.1555
1 19.8345 17.3151 10.381
1 19.0538 16.4931 10.3493
1 20.6362 17.3008 11.1555
1 21.4299 16.5071 11.1555
1 21.4148 17.2788 10.3449
1 20.635 16.4862 10.3542
1 22.2236 17.3008 11.1555
1 23.0173 16.5071 11.1555
1 23.0245 17.2982 10.3537
1 22.2261 16.5059 10.3665
1 23.811 17.3008 11.1555
1 24.6047 16.5071 11.1555
1 24.605 17.3101 10.3361
1 23.8074 16.5101 10.3621
1 25.3984 17.3008 11.1555
1 26.1921 16.5071 11.1555
1 26.193 17.2906 10.3848
1 25.379 16.4917 10.3648
1 26.9858 17.3008 11.1555
1 27.7795 16.5071 11.1555
1 27.7735 17.2731 10.3508
1 26.9628 16.499 10.3697
1 28.5732 17.3008 11.1555
1 29.3669 16.5071 11.1555
1 29.3027 17.2635 10.3319
1 28.537 16.4995 10.3682
1 30 15.7134 11.1555
1 0.793701 14.9197 11.1555
1 0.810032 15.7129 10.3478
1 0.0793669 14.9171 10.3396
1 1.5874 15.7134 11.1555
1 2.3811 14.9197 11.1555
1 2.39123 15.7289 10.3611
1 1.59785 14.9149 10.3825
1 3.1748 15.7134 11.1555
1 3.9685 14.9197 11.1555
1 3.97512 15.7335 10.3678
1 3.19302 14.9595 10.3704
1 4.7622 15.7134 11.1555
1 5.5559 14.9197 11.1555
1 5.55724 15.7124 10.3833
1 4.77869 14.911 10.3803
1 6.3496 15.7134 11.1555
1 7.1433 14.9197 11.1555
1 7.14403 15.7278 10.3504
1 6.357 14.9256 10.36
1 7.93701 15.7134 11.1555
1 8.73071 14.9197 11.1555
1 8.72305 15.7065 10.3295
1 7.93202 14.916 10.3401
1 9.52441 15.7134 11.1555
1 10.3181 14.9197 11.1555
1 10.3398 15.7349 10.343
1 9.52991 14.9116 10.3794
1 11.1118 15.7134 11.1555
1 11.9055 14.9197 11.1555
1 11.8938 15.7052 10.3556
1 11.0835 14.9343 10.3673
1 12.6992 15.7134 11.1555
1 13.4929 14.9197 11.1555
1 13.4981 15.7481 10.3576
1 12.7036 14.9295 10.3895
1 14.2866 15.7134 11.1555
1 15.0803 14.9197 11.1555
1 15.0701 15.7309 10.3855
1 14.2674 14.9141 10.3736
1 15.874 15.7134 11.1555
1 16.6677 14.9197 11.1555
1 16.6876 15.707 10.3661
1 15.8841 14.9543 10.36
1 17.4614 15.7134 11.1555
1 18.2551 14.9197 11.1555
1 18.2552 15.7018 10.3626
1 17.4826 14.9061 10.3502
1 19.0488 15.7134 11.1555
1 19.8425 14.9197 11.1555
1 19.8609 15.6828 10.3565
1 19.0249 14.9119 10.3681
1 20.6362 15.7134 11.1555
1 21.4299 14.9197 11.1555
1 21.4294 15.7165 10.3355
1 20.6329 14.8942 10.3439
1 22.2236 15.7134 11.1555
1 23.0173 14.9197 11.1555
1 22.9895 15.7026 10.3725
1 22.2088 14.945 10.3656
1 23.811 15.7134 11.1555
1 24.6047 14.9197 11.1555
1 24.5954 15.7175 10.3972
1 23.7771 14.9216 10.3816
1 25.3984 15.7134 11.1555
1 26.1921 14.9197 11.1555
1 26.1634 15.7181 10.3645
1 25.3909 14.9152 10.3689
1 26.9858 15.7134 11.1555
1 27.7795 14.9197 11.1555
1 27.7547 15.6861 10.3876
1 26.9748 14.9012 10.3715
1 28.5732 15.7134 11.1555
1 29.3669 14.9197 11.1555
1 29.2946 15.6831 10.3273
1 28.5542 14.8986 10.3636
1 30 14.126 11.1555
1 0.793701 13.3323 11.1555
1 0.821005 14.119 10.3396
1 0.0235826 13.3331 10.3011
1 1.5874 14.126 11.1555
1 2.3811 13.3323 11.1555
1 2.3861 14.1238 10.3471
1 1.59314 13.3359 10.357
1 3.1748 14.126 11.1555
1 3.9685 13.3323 11.1555
1 3.97031 14.1206 10.3549
1 3.18923 13.3306 10.3404
1 4.7622 14.126 11.1555
1 5.5559 13.3323 11.1555
1 5.5565 14.1067 10.3458
1 4.77197 13.3631 10.3796
1 6.3496 14.126 11.1555
1 7.1433 13.3323 11.1555
1 7.13661 14.0996 10.3498
1 6.34613 13.3502 10.3742
1 7.93701 14.126 11.1555
1 8.73071 13.3323 11.1555
1 8.75381 14.1365 10.3614
1 7.91792 13.3351 10.353
1 9.52441 14.126 11.1555
1 10.3181 13.3323 11.1555
1 10.3355 14.1278 10.3664
1 9.5067 13.3367 10.3349
1 11.1118 14.126 11.1555
1 11.9055 13.3323 11.1555
1 11.9089 14.1246 10.3949
1 11.1195 13.3272 10.3681
1 12.6992 14.126 11.1555
1 13.4929 13.3323 11.1555
1 13.5095 14.1272 10.3624
1 12.7227 13.3466 10.3247
1 14.2866 14.126 11.1555
1 15.0803 13.3323 11.1555
1 15.0704 14.158 10.3468
1 14.2948 13.3242 10.3489
1 15.874 14.126 11.1555
1 16.6677 13.3323 11.1555
1 16.6608 14.1196 10.3847
1 15.8747 13.3332 10.3802
1 17.4614 14.126 11.1555
1 18.2551 13.3323 11.1555
1 18.2435 14.0966 10.382
1 17.4433 13.3301 10.3818
1 19.0488 14.126 11.1555
1 19.8425 13.3323 11.1555
1 19.8355 14.1433 10.3864
1 19.0727 13.3383 10.3653
1 20.6362 14.126 11.1555
1 21.4299 13.3323 11.1555
1 21.4376 14.1478 10.3622
1 20.6225 13.3269 10.362
1 22.2236 14.126 11.1555
1 23.0173 13.3323 11.1555
1 23.0259 14.1157 10.3785
1 22.2314 13.335 10.3668
1 23.811 14.126 11.1555
1 24.6047 13.3323 11.1555
1 24.5848 14.1217 10.374
1 23.793 13.3269 10.3757
1 25.3984 14.126 11.1555
1 26.1921 13.3323 11.1555
1 26.196 14.1099 10.3684
1 25.3858 13.3388 10.3627
1 26.9858 14.126 11.1555
1 27.7795 13.3323 11.1555
1 27.77 14.1057 10.356
1 26.9952 13.3273 10.3637
1 28.5732 14.126 11.1555
1 29.3669 13.3323 11.1555
1 29.3033 14.1203 10.3403
1 28.5579 13.3111 10.3341
1 30 12.5386 11.1555
1 0.793701 11.7449 11.1555
1 0.823292 12.5466 10.3617
1 0.105256 11.7545 10.3249
1 1.5874 12.5386 11.1555
1 2.3811 11.7449 11.1555
1 2.39204 12.5326 10.3664
1 1.5758 11.7245 10.3895
1 3.1748 12.5386 11.1555
1 3.9685 11.7449 11.1555
1 3.97392 12.5443 10.3689
1 3.16742 11.7447 10.3688
1 4.7622 12.5386 11.1555
1 5.5559 11.7449 11.1555
1 5.55048 12.5387 10.3566
1 4.7781 11.7472 10.3689
1 6.3496 12.5386 11.1555
1 7.1433 11.7449 11.1555
1 7.12159 12.5504 10.3499
1 6.36044 11.743 10.3685
1 7.93701 12.5386 11.1555
1 8.73071 11.7449 11.1555
1 8.71246 12.5376 10.3431
1 7.94449 11.7437 10.3497
1 9.52441 12.5386 11.1555
1 10.3181 11.7449 11.1555
1 10.304 12.5571 10.3601
1 9.52318 11.7464 10.3769
1 11.1118 12.5386 11.1555
1 11.9055 11.7449 11.1555
1 11.9053 12.5218 10.3437
1 11.0865 11.7777 10.3446
1 12.6992 12.5386 11.1555
1 13.4929 11.7449 11.1555
1 13.4967 12.5287 10.3597
1 12.6876 11.7316 10.3591
1 14.2866 12.5386 11.1555
1 15.0803 11.7449 11.1555
1 15.0902 12.5379 10.3705
1 14.2835 11.7501 10.346
1 15.874 12.5386 11.1555
1 16.6677 11.7449 11.1555
1 16.6689 12.5459 10.3547
1 15.8737 11.7233 10.3535
1 17.4614 12.5386 11.1555
1 18.2551 11.7449 11.1555
1 18.2485 12.5397 10.3594
1 17.4499 11.7215 10.3534
1 19.0488 12.5386 11.1555
1 19.8425 11.7449 11.1555
1 19.849 12.537 10.3364
1 19.0482 11.755 10.378
1 20.6362 12.5386 11.1555
1 21.4299 11.7449 11.1555
1 21.44 12.5508 10.3554
1 20.6239 11.7385 10.3718
1 22.2236 12.5386 11.1555
1 23.0173 11.7449 11.1555
1 23.0156 12.5326 10.3723
1 22.2231 11.723 10.3739
1 23.811 12.5386 11.1555
1 24.6047 11.7449 11.1555
1 24.5916 12.5421 10.3738
1 23.8163 11.7358 10.3545
1 25.3984 12.5386 11.1555
1 26.1921 11.7449 11.1555
1 26.1854 12.5505 10.3694
1 25.4105 11.7457 10.3796
1 26.9858 12.5386 11.1555
1 27.7795 11.7449 11.1555
1 27.7511 12.5405 10.3774
1 26.9733 11.7314 10.3556
1 28.5732 12.5386 11.1555
1 29.3669 11.7449 11.1555
1 29.2908 12.4945 10.3287
1 28.5364 11.7558 10.3498
1 30 10.9512 11.1555
1 0.793701 10.1575 11.1555
1 0.82564 10.9429 10.3762
1 0.0768397 10.1392 10.3175
1 1.5874 10.9512 11.1555
1 2.3811 10.1575 11.1555
1 2.36509 10.9375 10.3605
1 1.60524 10.1209 10.3585
1 3.1748 10.9512 11.1555
1 3.9685 10.1575 11.1555
1 4.00169 10.9481 10.3679
1 3.15389 10.1626 10.3601
1 4.7622 10.9512 11.1555
1 5.5559 10.1575 11.1555
1 5.54805 10.9394 10.3884
1 4.75669 10.1615 10.368
1 6.3496 10.9512 11.1555
1 7.1433 10.1575 11.1555
1 7.17467 10.9307 10.3725
1 6.36537 10.1721 10.3682
1 7.93701 10.9512 11.1555
1 8.73071 10.1575 11.1555
1 8.72573 10.94 10.3323
1 7.96739 10.1514 10.3794
1 9.52441 10.9512 11.1555
1 10.3181 10.1575 11.1555
1 10.3255 10.9683 10.3713
1 9.51583 10.1515 10.3495
1 11.1118 10.9512 11.1555
1 11.9055 10.1575 11.1555
1 11.886 10.9739 10.3761
1 11.1223 10.1398 10.3588
1 12.6992 10.9512 11.1555
1 13.4929 10.1575 11.1555
1 13.4958 10.9389 10.3611
1 12.7025 10.1417 10.344
1 14.2866 10.9512 11.1555
1 15.0803 10.1575 11.1555
1 15.0893 10.95 10.3573
1 14.3292 10.1687 10.38
1 15.874 10.9512 11.1555
1 16.6677 10.1575 11.1555
1 16.6546 10.9194 10.3823
1 15.8645 10.1364 10.357
1 17.4614 10.9512 11.1555
1 18.2551 10.1575 11.1555
1 18.277 10.9288 10.37
1 17.4917 10.1307 10.3732
1 19.0488 10.9512 11.1555
1 19.8425 10.1575 11.1555
1 19.8635 10.9434 10.3752
1 19.0488 10.1442 10.3724
1 20.6362 10.9512 11.1555
1 21.4299 10.1575 11.1555
1 21.4355 10.9623 10.345
1 20.6461 10.1746 10.3798
1 22.2236 10.9512 11.1555
1 23.0173 10.1575 11.1555
1 23.0293 10.9245 10.3568
1 22.2102 10.1471 10.3755
1 23.811 10.9512 11.1555
1 24.6047 10.1575 11.1555
1 24.6197 10.9454 10.3558
1 23.8226 10.173 10.3621
1 25.3984 10.9512 11.1555
1 26.1921 10.1575 11.1555
1 26.168 10.965 10.3663
1 25.3786 10.1642 10.3694
1 26.9858 10.9512 11.1555
1 27.7795 10.1575 11.1555
1 27.7496 10.9456 10.3703
1 26.9442 10.1385 10.3676
1 28.5732 10.9512 11.1555
1 29.3669 10.1575 11.1555
1 29.3212 10.9618 10.3294
1 28.5488 10.1589 10.3583
1 30 9.36379 11.1555
1 0.793701 8.57009 11.1555
1 0.81692 9.34544 10.3415
1 0.067352 8.54264 10.3436
1 1.5874 9.36379 11.1555
1 2.3811 8.57009 11.1555
1 2.4094 9.3724 10.3512
1 1.61325 8.58285 10.3562
1 3.1748 9.36379 11.1555
1 3.9685 8.57009 11.1555
1 3.94031 9.36903 10.3611
1 3.16903 8.58199 10.3637
1 4.7622 9.36379 11.1555
1 5.5559 8.57009 11.1555
1 5.55813 9.39709 10.3622
1 4.7557 8.6022 10.3516
1 6.3496 9.36379 11.1555
1 7.1433 8.57009 11.1555
1 7.14307 9.34891 10.3268
1 6.34118 8.58216 10.3387
1 7.93701 9.36379 11.1555
1 8.73071 8.57009 11.1555
1 8.75212 9.36786 10.3361
1 7.92844 8.56105 10.3559
1 9.52441 9.36379 11.1555
1 10.3181 8.57009 11.1555
1 10.324 9.35314 10.3657
1 9.53362 8.56466 10.3497
1 11.1118 9.36379 11.1555
1 11.9055 8.57009 11.1555
1 11.904 9.359 10.3739
1 11.1229 8.56796 10.3536
1 12.6992 9.36379 11.1555
1 13.4929 8.57009 11.1555
1 13.5003 9.36783 10.355
1 12.6827 8.55978 10.3611
1 14.2866 9.36379 11.1555
1 15.0803 8.57009 11.1555
1 15.0952 9.35345 10.3682
1 14.278 8.56836 10.3842
1 15.874 9.36379 11.1555
1 16.6677 8.57009 11.1555
1 16.6537 9.34309 10.3536
1 15.8681 8.55399 10.3938
1 17.4614 9.36379 11.1555
1 18.2551 8.57009 11.1555
1 18.259 9.34722 10.3557
1 17.4668 8.55168 10.3606
1 19.0488 9.36379 11.1555
1 19.8425 8.57009 11.1555
1 19.8637 9.36778 10.3827
1 19.0715 8.57862 10.3369
1 20.6362 9.36379 11.1555
1 21.4299 8.57009 11.1555
1 21.4508 9.36323 10.3622
1 20.6465 8.58117 10.3394
1 22.2236 9.36379 11.1555
1 23.0173 8.57009 11.1555
1 23.0444 9.37386 10.3591
1 22.2393 8.6025 10.3616
1 23.811 9.36379 11.1555
1 24.6047 8.57009 11.1555
1 24.6044 9.37083 10.3503
1 23.7795 8.58166 10.3677
1 25.3984 9.36379 11.1555
1 26.1921 8.57009 11.1555
1 26.1788 9.35416 10.3585
1 25.3887 8.56432 10.3774
1 26.9858 9.36379 11.1555
1 27.7795 8.57009 11.1555
1 27.7603 9.36766 10.363
1 26.9829 8.59475 10.3582
1 28.5732 9.36379 11.1555
1 29.3669 8.57009 11.1555
1 29.3011 9.37257 10.3404
1 28.5308 8.58818 10.3318
1 30 7.77639 11.1555
1 0.793701 6.98268 11.1555
1 0.816243 7.78349 10.3695
1 0.0825366 6.99363 10.3454
1 1.5874 7.77639 11.1555
1 2.3811 6.98268 11.1555
1 2.41851 7.79281 10.3551
1 1.62938 6.97903 10.3423
1 3.1748 7.77639 11.1555
1 3.9685 6.98268 11.1555
1 3.96479 7.80131 10.354
1 3.19804 6.97375 10.3459
1 4.7622 7.77639 11.1555
1 5.5559 6.98268 11.1555
1 5.53125 7.77473 10.3726
1 4.73299 6.97876 10.3301
1 6.3496 7.77639 11.1555
1 7.1433 6.98268 11.1555
1 7.12587 7.76455 10.3484
1 6.3582 6.99165 10.3628
1 7.93701 7.77639 11.1555
1 8.73071 6.98268 11.1555
1 8.73262 7.78534 10.3681
1 7.96629 6.97804 10.3576
1 9.52441 7.77639 11.1555
1 10.3181 6.98268 11.1555
1 10.3034 7.77649 10.3589
1 9.52081 6.9776 10.361
1 11.1118 7.77639 11.1555
1 11.9055 6.98268 11.1555
1 11.8868 7.78974 10.3752
1 11.0839 6.9892 10.3711
1 12.6992 7.77639 11.1555
1 13.4929 6.98268 11.1555
1 13.5174 7.789 10.3601
1 12.6985 7.02041 10.3736
1 14.2866 7.77639 11.1555
1 15.0803 6.98268 11.1555
1 15.0699 7.77237 10.3542
1 14.2919 6.97064 10.3669
1 15.874 7.77639 11.1555
1 16.6677 6.98268 11.1555
1 16.6451 7.77703 10.3783
1 15.8479 6.96225 10.3412
1 17.4614 7.77639 11.1555
1 18.2551 6.98268 11.1555
1 18.2676 7.75825 10.3356
1 17.4501 7.0101 10.3553
1 19.0488 7.77639 11.1555
1 19.8425 6.98268 11.1555
1 19.8733 7.80298 10.3524
1 19.0673 6.98629 10.3563
1 20.6362 7.77639 11.1555
1 21.4299 6.98268 11.1555
1 21.4579 7.78157 10.3603
1 20.6394 7.01819 10.3731
1 22.2236 7.77639 11.1555
1 23.0173 6.98268 11.1555
1 22.9978 7.79874 10.3514
1 22.2156 7.01187 10.332
1 23.811 7.77639 11.1555
1 24.6047 6.98268 11.1555
1 24.5907 7.7765 10.369
1 23.786 6.95602 10.368
1 25.3984 7.77639 11.1555
1 26.1921 6.98268 11.1555
1 26.1644 7.73782 10.342
1 25.3999 6.97759 10.3687
1 26.9858 7.77639 11.1555
1 27.7795 6.98268 11.1555
1 27.7581 7.79633 10.3555
1 26.9837 6.97436 10.3527
1 28.5732 7.77639 11.1555
1 29.3669 6.98268 11.1555
1 29.2826 7.77615 10.3537
1 28.5493 6.97422 10.3477
1 30 6.18898 11.1555
1 0.793701 5.39528 11.1555
1 0.833972 6.18457 10.3465
1 0.0501521 5.3941 10.3111
1 1.5874 6.18898 11.1555
1 2.3811 5.39528 11.1555
1 2.40818 6.17275 10.3605
1 1.59487 5.37079 10.372
1 3.1748 6.18898 11.1555
1 3.9685 5.39528 11.1555
1 3.99564 6.19145 10.3417
1 3.19093 5.39637 10.3723
1 4.7622 6.18898 11.1555
1 5.5559 5.39528 11.1555
1 5.53551 6.20032 10.3667
1 4.77136 5.39031 10.354
1 6.3496 6.18898 11.1555
1 7.1433 5.39528 11.1555
1 7.16228 6.1972 10.3541
1 6.35425 5.38341 10.3711
1 7.93701 6.18898 11.1555
1 8.73071 5.39528 11.1555
1 8.73794 6.16917 10.3564
1 7.92792 5.40302 10.4009
1 9.52441 6.18898 11.1555
1 10.3181 5.39528 11.1555
1 10.3095 6.19929 10.363