9376
Atoms. Timestep: 120000
1 0.05 3.55271e-15 10.7413
1 0.843701 29.2063 10.7413
1 0.868059 29.9203 9.91534
1 0.111871 29.2018 9.91023
1 1.6374 3.55271e-15 10.7413
1 2.4311 29.2063 10.7413
1 2.44413 29.9234 9.92045
1 1.63454 29.1515 9.94482
1 3.2248 3.55271e-15 10.7413
1 4.0185 29.2063 10.7413
1 4.05299 29.9285 9.91552
1 3.23451 29.1882 9.9652
1 4.8122 3.55271e-15 10.7413
1 5.6059 29.2063 10.7413
1 5.57925 29.9458 9.88554
1 4.81843 29.1876 9.9385
1 6.3996 3.55271e-15 10.7413
1 7.1933 29.2063 10.7413
1 7.16998 29.9357 9.91139
1 6.37901 29.1728 9.93986
1 7.98701 3.55271e-15 10.7413
1 8.78071 29.2063 10.7413
1 8.76664 29.9437 9.89707
1 7.96748 29.1832 9.94972
1 9.57441 3.55271e-15 10.7413
1 10.3681 29.2063 10.7413
1 10.3492 29.96 9.9117
1 9.55544 29.1922 9.95352
1 11.1618 3.55271e-15 10.7413
1 11.9555 29.2063 10.7413
1 11.9591 29.9538 9.92905
1 11.152 29.183 9.94404
1 12.7492 3.55271e-15 10.7413
1 13.5429 29.2063 10.7413
1 13.539 29.9282 9.92971
1 12.7699 29.16 9.9716
1 14.3366 3.55271e-15 10.7413
1 15.1303 29.2063 10.7413
1 15.1173 29.9614 9.91629
1 14.325 29.1812 9.92354
1 15.924 3.55271e-15 10.7413
1 16.7177 29.2063 10.7413
1 16.6993 29.9521 9.89373
1 15.9312 29.2072 9.9379
1 17.5114 3.55271e-15 10.7413
1 18.3051 29.2063 10.7413
1 18.2956 29.9253 9.91731
1 17.4937 29.1806 9.95588
1 19.0988 3.55271e-15 10.7413
1 19.8925 29.2063 10.7413
1 19.9079 29.9383 9.92017
1 19.092 29.1672 9.95909
1 20.6862 3.55271e-15 10.7413
1 21.4799 29.2063 10.7413
1 21.4723 29.9241 9.91417
1 20.6798 29.184 9.93192
1 22.2736 3.55271e-15 10.7413
1 23.0673 29.2063 10.7413
1 23.059 29.9313 9.91708
1 22.2744 29.172 9.95329
1 23.861 3.55271e-15 10.7413
1 24.6547 29.2063 10.7413
1 24.6362 29.9376 9.90736
1 23.8545 29.1912 9.93766
1 25.4484 3.55271e-15 10.7413
1 26.2421 29.2063 10.7413
1 26.2504 29.9363 9.92281
1 25.4338 29.1803 9.95191
1 27.0358 3.55271e-15 10.7413
1 27.8295 29.2063 10.7413
1 27.8027 29.9252 9.9005
1 27.0273 29.1751 9.91292
1 28.6232 3.55271e-15 10.7413
1 29.4169 29.2063 10.7413
1 29.3274 29.9683 9.89489
1 28.5972 29.1823 9.9446
1 0.05 28.4126 10.7413
1 0.843701 27.6189 10.7413
1 0.871163 28.4149 9.95056
1 0.111647 27.6051 9.90029
1 1.6374 28.4126 10.7413
1 2.4311 27.6189 10.7413
1 2.41679 28.4013 9.96472
1 1.63764 27.6061 9.96343
1 3.2248 28.4126 10.7413
1 4.0185 27.6189 10.7413
1 4.02311 28.3968 9.95728
1 3.2416 27.6163 9.94896
1 4.8122 28.4126 10.7413
1 5.6059 27.6189 10.7413
1 5.62921 28.3839 9.9657
1 4.81281 27.5857 9.95742
1 6.3996 28.4126 10.7413
1 7.1933 27.6189 10.7413
1 7.22109 28.3929 9.93292
1 6.40644 27.5976 9.93754
1 7.98701 28.4126 10.7413
1 8.78071 27.6189 10.7413
1 8.75142 28.4147 9.95238
1 7.99836 27.5785 9.95715
1 9.57441 28.4126 10.7413
1 10.3681 27.6189 10.7413
1 10.3717 28.4043 9.95142
1 9.56841 27.5992 9.95631
1 11.1618 28.4126 10.7413
1 11.9555 27.6189 10.7413
1 11.965 28.403 9.95125
1 11.1819 27.6032 9.92838
1 12.7492 28.4126 10.7413
1 13.5429 27.6189 10.7413
1 13.5731 28.3893 9.91258
1 12.7391 27.6073 9.95461
1 14.3366 28.4126 10.7413
1 15.1303 27.6189 10.7413
1 15.1557 28.4206 9.95031
1 14.318 27.612 9.93575
1 15.924 28.4126 10.7413
1 16.7177 27.6189 10.7413
1 16.7107 28.4061 9.932
1 15.942 27.6047 9.95641
1 17.5114 28.4126 10.7413
1 18.3051 27.6189 10.7413
1 18.3 28.3769 9.93766
1 17.4951 27.6048 9.94667
1 19.0988 28.4126 10.7413
1 19.8925 27.6189 10.7413
1 19.9208 28.4091 9.96123
1 19.1152 27.6132 9.95443
1 20.6862 28.4126 10.7413
1 21.4799 27.6189 10.7413
1 21.4729 28.3954 9.96088
1 20.6952 27.6362 9.94951
1 22.2736 28.4126 10.7413
1 23.0673 27.6189 10.7413
1 23.0853 28.3862 9.94533
1 22.2751 27.6067 9.91057
1 23.861 28.4126 10.7413
1 24.6547 27.6189 10.7413
1 24.6444 28.3893 9.9553
1 23.8829 27.6018 9.93759
1 25.4484 28.4126 10.7413
1 26.2421 27.6189 10.7413
1 26.2248 28.3946 9.9493
1 25.4432 27.6219 9.94082
1 27.0358 28.4126 10.7413
1 27.8295 27.6189 10.7413
1 27.8255 28.4162 9.92186
1 27.0312 27.608 9.93059
1 28.6232 28.4126 10.7413
1 29.4169 27.6189 10.7413
1 29.3554 28.4174 9.92984
1 28.593 27.6043 9.95202
1 0.05 26.8252 10.7413
1 0.843701 26.0315 10.7413
1 0.856206 26.8209 9.91809
1 0.0975214 26.0249 9.89464
1 1.6374 26.8252 10.7413
1 2.4311 26.0315 10.7413
1 2.43516 26.8292 9.95518
1 1.64038 26.0385 9.92962
1 3.2248 26.8252 10.7413
1 4.0185 26.0315 10.7413
1 4.03082 26.8044 9.9562
1 3.23862 26.0018 9.97456
1 4.8122 26.8252 10.7413
1 5.6059 26.0315 10.7413
1 5.62587 26.8429 9.95423
1 4.84781 26.0566 9.94215
1 6.3996 26.8252 10.7413
1 7.1933 26.0315 10.7413
1 7.21449 26.8026 9.96638
1 6.42467 26.0417 9.94924
1 7.98701 26.8252 10.7413
1 8.78071 26.0315 10.7413
1 8.75812 26.7891 9.93679
1 7.98626 26.0217 9.94999
1 9.57441 26.8252 10.7413
1 10.3681 26.0315 10.7413
1 10.3915 26.8393 9.92293
1 9.59408 26.0556 9.95161
1 11.1618 26.8252 10.7413
1 11.9555 26.0315 10.7413
1 11.9696 26.7862 9.95376
1 11.1683 26.042 9.93339
1 12.7492 26.8252 10.7413
1 13.5429 26.0315 10.7413
1 13.5316 26.808 9.97676
1 12.7412 26.0134 9.94829
1 14.3366 26.8252 10.7413
1 15.1303 26.0315 10.7413
1 15.1432 26.8604 9.94277
1 14.3536 26.0198 9.94907
1 15.924 26.8252 10.7413
1 16.7177 26.0315 10.7413
1 16.7151 26.7915 9.9837
1 15.893 26.0485 9.94952
1 17.5114 26.8252 10.7413
1 18.3051 26.0315 10.7413
1 18.3083 26.8315 9.94971
1 17.5242 26.0397 9.94943
1 19.0988 26.8252 10.7413
1 19.8925 26.0315 10.7413
1 19.8825 26.7959 9.95509
1 19.11 26.0275 9.95564
1 20.6862 26.8252 10.7413
1 21.4799 26.0315 10.7413
1 21.4827 26.8173 9.93714
1 20.7048 26.0065 9.96444
1 22.2736 26.8252 10.7413
1 23.0673 26.0315 10.7413
1 23.0804 26.8244 9.92873
1 22.2888 26.0755 9.94058
1 23.861 26.8252 10.7413
1 24.6547 26.0315 10.7413
1 24.6655 26.8124 9.98715
1 23.8617 26.0034 9.96747
1 25.4484 26.8252 10.7413
1 26.2421 26.0315 10.7413
1 26.2481 26.805 9.93929
1 25.4547 26.0299 9.95781
1 27.0358 26.8252 10.7413
1 27.8295 26.0315 10.7413
1 27.818 26.8165 9.93047
1 27.021 26.0468 9.94163
1 28.6232 26.8252 10.7413
1 29.4169 26.0315 10.7413
1 29.3443 26.8173 9.93036
1 28.6175 26.0267 9.93298
1 0.05 25.2378 10.7413
1 0.843701 24.4441 10.7413
1 0.843485 25.2339 9.95278
1 0.114583 24.466 9.92908
1 1.6374 25.2378 10.7413
1 2.4311 24.4441 10.7413
1 2.43392 25.2393 9.96712
1 1.63673 24.4255 9.94676
1 3.2248 25.2378 10.7413
1 4.0185 24.4441 10.7413
1 4.03795 25.2148 9.9257
1 3.23163 24.4501 9.9702
1 4.8122 25.2378 10.7413
1 5.6059 24.4441 10.7413
1 5.64181 25.2209 9.94638
1 4.81331 24.4319 9.93598
1 6.3996 25.2378 10.7413
1 7.1933 24.4441 10.7413
1 7.18914 25.2544 9.9424
1 6.40121 24.4298 9.98782
1 7.98701 25.2378 10.7413
1 8.78071 24.4441 10.7413
1 8.80188 25.2397 9.94469
1 7.97028 24.4367 9.94789
1 9.57441 25.2378 10.7413
1 10.3681 24.4441 10.7413
1 10.3329 25.221 9.93276
1 9.55479 24.4422 9.93203
1 11.1618 25.2378 10.7413
1 11.9555 24.4441 10.7413
1 11.93 25.2417 9.92376
1 11.1637 24.451 9.94297
1 12.7492 25.2378 10.7413
1 13.5429 24.4441 10.7413
1 13.5379 25.2334 9.95972
1 12.745 24.4374 9.95414
1 14.3366 25.2378 10.7413
1 15.1303 24.4441 10.7413
1 15.1373 25.2081 9.9452
1 14.3295 24.4317 9.9608
1 15.924 25.2378 10.7413
1 16.7177 24.4441 10.7413
1 16.7188 25.2155 9.94176
1 15.8981 24.4304 9.9454
1 17.5114 25.2378 10.7413
1 18.3051 24.4441 10.7413
1 18.3209 25.2419 9.97303
1 17.5314 24.466 9.93872
1 19.0988 25.2378 10.7413
1 19.8925 24.4441 10.7413
1 19.9058 25.2188 9.95015
1 19.0896 24.4381 9.94983
1 20.6862 25.2378 10.7413
1 21.4799 24.4441 10.7413
1 21.4799 25.2575 9.95189
1 20.6979 24.4488 9.93431
1 22.2736 25.2378 10.7413
1 23.0673 24.4441 10.7413
1 23.0527 25.232 9.94821
1 22.2682 24.453 9.92873
1 23.861 25.2378 10.7413
1 24.6547 24.4441 10.7413
1 24.6589 25.2255 9.9448
1 23.8402 24.4589 9.91963
1 25.4484 25.2378 10.7413
1 26.2421 24.4441 10.7413
1 26.244 25.2373 9.94381
1 25.4418 24.4168 9.94059
1 27.0358 25.2378 10.7413
1 27.8295 24.4441 10.7413
1 27.8047 25.2487 9.97066
1 27.0173 24.4434 9.94297
1 28.6232 25.2378 10.7413
1 29.4169 24.4441 10.7413
1 29.35 25.2449 9.90538
1 28.5996 24.4757 9.92974
1 0.05 23.6504 10.7413
1 0.843701 22.8567 10.7413
1 0.88094 23.6482 9.9165
1 0.116206 22.8509 9.92877
1 1.6374 23.6504 10.7413
1 2.4311 22.8567 10.7413
1 2.43937 23.6711 9.97652
1 1.63892 22.8676 9.91711
1 3.2248 23.6504 10.7413
1 4.0185 22.8567 10.7413
1 4.02995 23.6303 9.9648
1 3.24271 22.8348 9.93637
1 4.8122 23.6504 10.7413
1 5.6059 22.8567 10.7413
1 5.60385 23.6243 9.95992
1 4.76781 22.8649 9.96288
1 6.3996 23.6504 10.7413
1 7.1933 22.8567 10.7413
1 7.19122 23.6511 9.93011
1 6.39522 22.8625 9.95584
1 7.98701 23.6504 10.7413
1 8.78071 22.8567 10.7413
1 8.79211 23.6256 9.9692
1 7.97569 22.8718 9.9257
1 9.57441 23.6504 10.7413
1 10.3681 22.8567 10.7413
1 10.3732 23.6451 9.93353
1 9.59179 22.8548 9.92712
1 11.1618 23.6504 10.7413
1 11.9555 22.8567 10.7413
1 11.933 23.6681 9.92224
1 11.1628 22.8676 9.96493
1 12.7492 23.6504 10.7413
1 13.5429 22.8567 10.7413
1 13.5351 23.6405 9.95267
1 12.7447 22.8677 9.94587
1 14.3366 23.6504 10.7413
1 15.1303 22.8567 10.7413
1 15.1251 23.6147 9.9565
1 14.3206 22.8176 9.9377
1 15.924 23.6504 10.7413
1 16.7177 22.8567 10.7413
1 16.708 23.6451 9.93838
1 15.9326 22.8111 9.9698
1 17.5114 23.6504 10.7413
1 18.3051 22.8567 10.7413
1 18.3055 23.6557 9.94028
1 17.511 22.8514 9.95111
1 19.0988 23.6504 10.7413
1 19.8925 22.8567 10.7413
1 19.8943 23.6411 9.92214
1 19.106 22.8456 9.91678
1 20.6862 23.6504 10.7413
1 21.4799 22.8567 10.7413
1 21.4689 23.6487 9.94732
1 20.6989 22.865 9.9254
1 22.2736 23.6504 10.7413
1 23.0673 22.8567 10.7413
1 23.0745 23.6541 9.93587
1 22.2587 22.8631 9.92816
1 23.861 23.6504 10.7413
1 24.6547 22.8567 10.7413
1 24.663 23.6624 9.94014
1 23.8484 22.8657 9.9729
1 25.4484 23.6504 10.7413
1 26.2421 22.8567 10.7413
1 26.2655 23.6469 9.92466
1 25.442 22.8539 9.96847
1 27.0358 23.6504 10.7413
1 27.8295 22.8567 10.7413
1 27.8209 23.6479 9.94721
1 27.0518 22.8417 9.95798
1 28.6232 23.6504 10.7413
1 29.4169 22.8567 10.7413
1 29.3353 23.6735 9.91469
1 28.5859 22.8627 9.95455
1 0.05 22.063 10.7413
1 0.843701 21.2693 10.7413
1 0.883564 22.0575 9.93134
1 0.133346 21.2655 9.90363
1 1.6374 22.063 10.7413
1 2.4311 21.2693 10.7413
1 2.42518 22.0673 9.90085
1 1.66508 21.2644 9.95251
1 3.2248 22.063 10.7413
1 4.0185 21.2693 10.7413
1 4.00139 22.0576 9.92745
1 3.24768 21.2465 9.95801
1 4.8122 22.063 10.7413
1 5.6059 21.2693 10.7413
1 5.5874 22.0634 9.94736
1 4.81656 21.2625 9.94291
1 6.3996 22.063 10.7413
1 7.1933 21.2693 10.7413
1 7.19811 22.063 9.94292
1 6.38028 21.2937 9.95908
1 7.98701 22.063 10.7413
1 8.78071 21.2693 10.7413
1 8.77009 22.0694 9.93823
1 8.00256 21.2844 9.94212
1 9.57441 22.063 10.7413
1 10.3681 21.2693 10.7413
1 10.3619 22.0769 9.92976
1 9.60016 21.2688 9.93845
1 11.1618 22.063 10.7413
1 11.9555 21.2693 10.7413
1 11.9431 22.0601 9.93888
1 11.1733 21.2615 9.92664
1 12.7492 22.063 10.7413
1 13.5429 21.2693 10.7413
1 13.5081 22.038 9.95098
1 12.7367 21.2492 9.92059
1 14.3366 22.063 10.7413
1 15.1303 21.2693 10.7413
1 15.1347 22.069 9.94065
1 14.3306 21.2781 9.94294
1 15.924 22.063 10.7413
1 16.7177 21.2693 10.7413
1 16.7147 22.0864 9.95205
1 15.9193 21.2829 9.94957
1 17.5114 22.063 10.7413
1 18.3051 21.2693 10.7413
1 18.3005 22.0642 9.94878
1 17.4902 21.2948 9.98721
1 19.0988 22.063 10.7413
1 19.8925 21.2693 10.7413
1 19.8994 22.0787 9.93916
1 19.1029 21.288 9.93866
1 20.6862 22.063 10.7413
1 21.4799 21.2693 10.7413
1 21.4509 22.0705 9.93251
1 20.6632 21.2715 9.93899
1 22.2736 22.063 10.7413
1 23.0673 21.2693 10.7413
1 23.0359 22.067 9.93741
1 22.2646 21.2805 9.95646
1 23.861 22.063 10.7413
1 24.6547 21.2693 10.7413
1 24.6287 22.053 9.96955
1 23.859 21.2442 9.93606
1 25.4484 22.063 10.7413
1 26.2421 21.2693 10.7413
1 26.2576 22.0507 9.96577
1 25.4318 21.2871 9.93543
1 27.0358 22.063 10.7413
1 27.8295 21.2693 10.7413
1 27.8372 22.0477 9.95358
1 27.0276 21.2654 9.94038
1 28.6232 22.063 10.7413
1 29.4169 21.2693 10.7413
1 29.3417 22.0412 9.93288
1 28.6145 21.2801 9.93431
1 0.05 20.4756 10.7413
1 0.843701 19.6819 10.7413
1 0.89198 20.4837 9.95077
1 0.12281 19.7236 9.91088
1 1.6374 20.4756 10.7413
1 2.4311 19.6819 10.7413
1 2.4634 20.4785 9.93576
1 1.68705 19.6836 9.9407
1 3.2248 20.4756 10.7413
1 4.0185 19.6819 10.7413
1 4.0207 20.4744 9.95157
1 3.2373 19.7008 9.93726
1 4.8122 20.4756 10.7413
1 5.6059 19.6819 10.7413
1 5.6412 20.4506 9.95815
1 4.82399 19.6924 9.96557
1 6.3996 20.4756 10.7413
1 7.1933 19.6819 10.7413
1 7.19516 20.485 9.97356
1 6.37778 19.6839 9.95081
1 7.98701 20.4756 10.7413
1 8.78071 19.6819 10.7413
1 8.78404 20.4949 9.95048
1 7.98588 19.6647 9.95452
1 9.57441 20.4756 10.7413
1 10.3681 19.6819 10.7413
1 10.3833 20.4739 9.93418
1 9.56364 19.7032 9.94581
1 11.1618 20.4756 10.7413
1 11.9555 19.6819 10.7413
1 11.9634 20.4599 9.93164
1 11.162 19.6796 9.94092
1 12.7492 20.4756 10.7413
1 13.5429 19.6819 10.7413
1 13.5354 20.4845 9.94927
1 12.7549 19.6807 9.94255
1 14.3366 20.4756 10.7413
1 15.1303 19.6819 10.7413
1 15.1352 20.5112 9.94347
1 14.3236 19.699 9.95584
1 15.924 20.4756 10.7413
1 16.7177 19.6819 10.7413
1 16.6984 20.4714 9.96597
1 15.9073 19.6682 9.94368
1 17.5114 20.4756 10.7413
1 18.3051 19.6819 10.7413
1 18.3235 20.4718 9.96078
1 17.5178 19.6648 9.94708
1 19.0988 20.4756 10.7413
1 19.8925 19.6819 10.7413
1 19.8842 20.4953 9.94436
1 19.1013 19.6641 9.94117
1 20.6862 20.4756 10.7413
1 21.4799 19.6819 10.7413
1 21.4741 20.4917 9.94136
1 20.6671 19.6962 9.95548
1 22.2736 20.4756 10.7413
1 23.0673 19.6819 10.7413
1 23.0451 20.5037 9.96927
1 22.2546 19.6797 9.95063
1 23.861 20.4756 10.7413
1 24.6547 19.6819 10.7413
1 24.6533 20.4658 9.92782
1 23.8418 19.6942 9.95492
1 25.4484 20.4756 10.7413
1 26.2421 19.6819 10.7413
1 26.2333 20.4806 9.94167
1 25.4405 19.6772 9.951
1 27.0358 20.4756 10.7413
1 27.8295 19.6819 10.7413
1 27.8298 20.493 9.94241
1 27.0112 19.6901 9.96365
1 28.6232 20.4756 10.7413
1 29.4169 19.6819 10.7413
1 29.3632 20.4723 9.91927
1 28.5949 19.6693 9.95199
1 0.05 18.8882 10.7413
1 0.843701 18.0945 10.7413
1 0.874683 18.9118 9.92742
1 0.119153 18.1021 9.93474
1 1.6374 18.8882 10.7413
1 2.4311 18.0945 10.7413
1 2.47322 18.8757 9.9612
1 1.66558 18.0806 9.93323
1 3.2248 18.8882 10.7413
1 4.0185 18.0945 10.7413
1 4.01368 18.8857 9.93456
1 3.20233 18.0917 9.93828
1 4.8122 18.8882 10.7413
1 5.6059 18.0945 10.7413
1 5.59693 18.8952 9.94561
1 4.81961 18.0793 9.9549
1 6.3996 18.8882 10.7413
1 7.1933 18.0945 10.7413
1 7.19743 18.9224 9.96027
1 6.38803 18.1242 9.94616
1 7.98701 18.8882 10.7413
1 8.78071 18.0945 10.7413
1 8.80671 18.8746 9.95182
1 7.97021 18.0974 9.94564
1 9.57441 18.8882 10.7413
1 10.3681 18.0945 10.7413
1 10.3843 18.8978 9.94645
1 9.55996 18.1094 9.95174
1 11.1618 18.8882 10.7413
1 11.9555 18.0945 10.7413
1 11.9576 18.8711 9.95566
1 11.1471 18.0707 9.95357
1 12.7492 18.8882 10.7413
1 13.5429 18.0945 10.7413
1 13.5596 18.9052 9.9509
1 12.7545 18.1129 9.93726
1 14.3366 18.8882 10.7413
1 15.1303 18.0945 10.7413
1 15.1361 18.86 9.94128
1 14.3668 18.0574 9.92923
1 15.924 18.8882 10.7413
1 16.7177 18.0945 10.7413
1 16.7234 18.8801 9.93471
1 15.9355 18.0753 9.94951
1 17.5114 18.8882 10.7413
1 18.3051 18.0945 10.7413
1 18.3183 18.8819 9.9629
1 17.5328 18.1082 9.94137
1 19.0988 18.8882 10.7413
1 19.8925 18.0945 10.7413
1 19.8823 18.8669 9.94788
1 19.0978 18.0815 9.95334
1 20.6862 18.8882 10.7413
1 21.4799 18.0945 10.7413
1 21.4568 18.8872 9.94805
1 20.6563 18.094 9.95842
1 22.2736 18.8882 10.7413
1 23.0673 18.0945 10.7413
1 23.0525 18.8763 9.9758
1 22.2299 18.0805 9.93278
1 23.861 18.8882 10.7413
1 24.6547 18.0945 10.7413
1 24.6598 18.8894 9.96269
1 23.8392 18.092 9.95028
1 25.4484 18.8882 10.7413
1 26.2421 18.0945 10.7413
1 26.2397 18.8716 9.96107
1 25.4539 18.0901 9.95602
1 27.0358 18.8882 10.7413
1 27.8295 18.0945 10.7413
1 27.7942 18.8885 9.92986
1 27.0212 18.1069 9.9617
1 28.6232 18.8882 10.7413
1 29.4169 18.0945 10.7413
1 29.3577 18.8921 9.92851
1 28.5809 18.0996 9.91832
1 0.05 17.3008 10.7413
1 0.843701 16.5071 10.7413
1 0.881577 17.2954 9.92377
1 0.104476 16.5059 9.92143
1 1.6374 17.3008 10.7413
1 2.4311 16.5071 10.7413
1 2.43696 17.2938 9.92757
1 1.65463 16.5116 9.94247
1 3.2248 17.3008 10.7413
1 4.0185 16.5071 10.7413
1 4.01278 17.305 9.95334
1 3.24261 16.5189 9.92772
1 4.8122 17.3008 10.7413
1 5.6059 16.5071 10.7413
1 5.62324 17.2735 9.96203
1 4.81914 16.5156 9.96497
1 6.3996 17.3008 10.7413
1 7.1933 16.5071 10.7413
1 7.19244 17.3006 9.95404
1 6.39737 16.4743 9.94045
1 7.98701 17.3008 10.7413
1 8.78071 16.5071 10.7413
1 8.76632 17.3194 9.93303
1 7.99686 16.5356 9.94161
1 9.57441 17.3008 10.7413
1 10.3681 16.5071 10.7413
1 10.3425 17.3124 9.95981
1 9.57825 16.4954 9.93684
1 11.1618 17.3008 10.7413
1 11.9555 16.5071 10.7413
1 11.9571 17.2853 9.92268
1 11.149 16.5148 9.96094
1 12.7492 17.3008 10.7413
1 13.5429 16.5071 10.7413
1 13.5519 17.2909 9.9535
1 12.7735 16.4892 9.93237
1 14.3366 17.3008 10.7413
1 15.1303 16.5071 10.7413
1 15.1384 17.2856 9.94205
1 14.3606 16.4814 9.95529
1 15.924 17.3008 10.7413
1 16.7177 16.5071 10.7413
1 16.7369 17.3049 9.95581
1 15.9305 16.4994 9.9579
1 17.5114 17.3008 10.7413
1 18.3051 16.5071 10.7413
1 18.3089 17.305 9.95684
1 17.5323 16.5032 9.94592
1 19.0988 17.3008 10.7413
1 19.8925 16.5071 10.7413
1 19.8904 17.2971 9.95301
1 19.1022 16.4936 9.95776
1 20.6862 17.3008 10.7413
1 21.4799 16.5071 10.7413
1 21.4575 17.3109 9.93922
1 20.6775 16.5153 9.95528
1 22.2736 17.3008 10.7413
1 23.0673 16.5071 10.7413
1 23.0544 17.2868 9.94744
1 22.2735 16.5135 9.94011
1 23.861 17.3008 10.7413
1 24.6547 16.5071 10.7413
1 24.6448 17.2982 9.97001
1 23.8746 16.4849 9.95582
1 25.4484 17.3008 10.7413
1 26.2421 16.5071 10.7413
1 26.2477 17.2948 9.95
1 25.4447 16.4839 9.94274
1 27.0358 17.3008 10.7413
1 27.8295 16.5071 10.7413
1 27.7993 17.3087 9.94959
1 27.015 16.5173 9.95426
1 28.6232 17.3008 10.7413
1 29.4169 16.5071 10.7413
1 29.3623 17.3183 9.90288
1 28.5767 16.5243 9.92432
1 0.05 15.7134 10.7413
1 0.843701 14.9197 10.7413
1 0.862363 15.7206 9.93342
1 0.108296 14.8927 9.90284
1 1.6374 15.7134 10.7413
1 2.4311 14.9197 10.7413
1 2.4396 15.7236 9.9522
1 1.65997 14.9147 9.95776
1 3.2248 15.7134 10.7413
1 4.0185 14.9197 10.7413
1 4.02315 15.6997 9.942
1 3.23864 14.9353 9.975
1 4.8122 15.7134 10.7413
1 5.6059 14.9197 10.7413
1 5.59754 15.6996 9.94282
1 4.83841 14.9159 9.9591
1 6.3996 15.7134 10.7413
1 7.1933 14.9197 10.7413
1 7.21192 15.6897 9.93469
1 6.4014 14.9354 9.92624
1 7.98701 15.7134 10.7413
1 8.78071 14.9197 10.7413
1 8.76825 15.7078 9.96477
1 7.98214 14.9321 9.95365
1 9.57441 15.7134 10.7413
1 10.3681 14.9197 10.7413
1 10.3726 15.7067 9.95381
1 9.5807 14.914 9.94267
1 11.1618 15.7134 10.7413
1 11.9555 14.9197 10.7413
1 11.9717 15.7146 9.95456
1 11.1603 14.9413 9.96633
1 12.7492 15.7134 10.7413
1 13.5429 14.9197 10.7413
1 13.571 15.7093 9.91712
1 12.7396 14.9289 9.93676
1 14.3366 15.7134 10.7413
1 15.1303 14.9197 10.7413
1 15.155 15.7141 9.91797
1 14.3277 14.9304 9.92833
1 15.924 15.7134 10.7413
1 16.7177 14.9197 10.7413
1 16.7149 15.7194 9.94269
1 15.9069 14.9135 9.9526
1 17.5114 15.7134 10.7413
1 18.3051 14.9197 10.7413
1 18.3204 15.719 9.968
1 17.5031 14.919 9.95399
1 19.0988 15.7134 10.7413
1 19.8925 14.9197 10.7413
1 19.8695 15.7341 9.92947
1 19.1023 14.9117 9.93622
1 20.6862 15.7134 10.7413
1 21.4799 14.9197 10.7413
1 21.4766 15.713 9.96392
1 20.6852 14.9214 9.94886
1 22.2736 15.7134 10.7413
1 23.0673 14.9197 10.7413
1 23.0704 15.7375 9.96004
1 22.2447 14.9099 9.93201
1 23.861 15.7134 10.7413
1 24.6547 14.9197 10.7413
1 24.674 15.7199 9.93117
1 23.8797 14.9359 9.94209
1 25.4484 15.7134 10.7413
1 26.2421 14.9197 10.7413
1 26.2324 15.7454 9.96069
1 25.4476 14.9326 9.9351
1 27.0358 15.7134 10.7413
1 27.8295 14.9197 10.7413
1 27.799 15.7237 9.94751
1 27.018 14.9277 9.91954
1 28.6232 15.7134 10.7413
1 29.4169 14.9197 10.7413
1 29.3438 15.7285 9.89845
1 28.5557 14.9318 9.95062
1 0.05 14.126 10.7413
1 0.843701 13.3323 10.7413
1 0.902314 14.1206 9.94014
1 0.122789 13.3184 9.92622
1 1.6374 14.126 10.7413
1 2.4311 13.3323 10.7413
1 2.4278 14.1117 9.96513
1 1.6858 13.3118 9.95215
1 3.2248 14.126 10.7413
1 4.0185 13.3323 10.7413
1 4.04107 14.1076 9.9896
1 3.23841 13.3325 9.96388
1 4.8122 14.126 10.7413
1 5.6059 13.3323 10.7413
1 5.62751 14.1136 9.94694
1 4.83184 13.3462 9.9781
1 6.3996 14.126 10.7413
1 7.1933 13.3323 10.7413
1 7.21862 14.122 9.9211
1 6.41771 13.3384 9.93894
1 7.98701 14.126 10.7413
1 8.78071 13.3323 10.7413
1 8.78142 14.1019 9.93255
1 7.98004 13.316 9.9466
1 9.57441 14.126 10.7413
1 10.3681 13.3323 10.7413
1 10.3605 14.143 9.93041
1 9.57407 13.3064 9.96497
1 11.1618 14.126 10.7413
1 11.9555 13.3323 10.7413
1 11.9612 14.1046 9.94338
1 11.167 13.3199 9.94291
1 12.7492 14.126 10.7413
1 13.5429 13.3323 10.7413
1 13.5219 14.138 9.95143
1 12.7521 13.3444 9.9361
1 14.3366 14.126 10.7413
1 15.1303 13.3323 10.7413
1 15.1491 14.1415 9.93327
1 14.3637 13.3691 9.91994
1 15.924 14.126 10.7413
1 16.7177 13.3323 10.7413
1 16.7276 14.1041 9.9522
1 15.9387 13.3425 9.96589
1 17.5114 14.126 10.7413
1 18.3051 13.3323 10.7413
1 18.2923 14.1335 9.93565
1 17.5125 13.3364 9.9223
1 19.0988 14.126 10.7413
1 19.8925 13.3323 10.7413
1 19.8766 14.1188 9.93571
1 19.0808 13.3278 9.9527
1 20.6862 14.126 10.7413
1 21.4799 13.3323 10.7413
1 21.4717 14.1413 9.95403
1 20.7032 13.3572 9.94151
1 22.2736 14.126 10.7413
1 23.0673 13.3323 10.7413
1 23.0575 14.1339 9.96059
1 22.2784 13.3488 9.93838
1 23.861 14.126 10.7413
1 24.6547 13.3323 10.7413
1 24.6844 14.1359 9.95301
1 23.8614 13.3402 9.93607
1 25.4484 14.126 10.7413
1 26.2421 13.3323 10.7413
1 26.2311 14.1324 9.94711
1 25.4562 13.3321 9.93349
1 27.0358 14.126 10.7413
1 27.8295 13.3323 10.7413
1 27.8157 14.1528 9.92954
1 27.0269 13.322 9.93541
1 28.6232 14.126 10.7413
1 29.4169 13.3323 10.7413
1 29.3335 14.1401 9.91912
1 28.58 13.3396 9.94751
1 0.05 12.5386 10.7413
1 0.843701 11.7449 10.7413
1 0.904295 12.544 9.92989
1 0.105415 11.7695 9.91602
1 1.6374 12.5386 10.7413
1 2.4311 11.7449 10.7413
1 2.45455 12.5437 9.93199
1 1.66594 11.7453 9.96467
1 3.2248 12.5386 10.7413
1 4.0185 11.7449 10.7413
1 4.03077 12.5338 9.93648
1 3.22688 11.7399 9.9441
1 4.8122 12.5386 10.7413
1 5.6059 11.7449 10.7413
1 5.61146 12.5258 9.96844
1 4.83535 11.7339 9.94195
1 6.3996 12.5386 10.7413
1 7.1933 11.7449 10.7413
1 7.21576 12.5125 9.94959
1 6.41334 11.7329 9.9404
1 7.98701 12.5386 10.7413
1 8.78071 11.7449 10.7413
1 8.78069 12.515 9.95841
1 7.98047 11.7402 9.92817
1 9.57441 12.5386 10.7413
1 10.3681 11.7449 10.7413
1 10.3842 12.5297 9.95899
1 9.56407 11.7451 9.93028
1 11.1618 12.5386 10.7413
1 11.9555 11.7449 10.7413
1 11.9643 12.5488 9.96066
1 11.1667 11.7546 9.95124
1 12.7492 12.5386 10.7413
1 13.5429 11.7449 10.7413
1 13.5741 12.5577 9.9385
1 12.785 11.7628 9.95745
1 14.3366 12.5386 10.7413
1 15.1303 11.7449 10.7413
1 15.1397 12.5643 9.93102
1 14.3426 11.7453 9.95422
1 15.924 12.5386 10.7413
1 16.7177 11.7449 10.7413
1 16.7477 12.5489 9.9687
1 15.9181 11.7507 9.95195
1 17.5114 12.5386 10.7413
1 18.3051 11.7449 10.7413
1 18.3138 12.5311 9.9571
1 17.5176 11.7305 9.94185
1 19.0988 12.5386 10.7413
1 19.8925 11.7449 10.7413
1 19.9211 12.5531 9.9698
1 19.1163 11.7692 9.95305
1 20.6862 12.5386 10.7413
1 21.4799 11.7449 10.7413
1 21.4819 12.572 9.93219
1 20.6929 11.741 9.96582
1 22.2736 12.5386 10.7413
1 23.0673 11.7449 10.7413
1 23.0395 12.5125 9.92918
1 22.2534 11.7663 9.94411
1 23.861 12.5386 10.7413
1 24.6547 11.7449 10.7413
1 24.6511 12.5661 9.94364
1 23.8758 11.767 9.94262
1 25.4484 12.5386 10.7413
1 26.2421 11.7449 10.7413
1 26.2509 12.5366 9.96058
1 25.4507 11.7486 9.96782
1 27.0358 12.5386 10.7413
1 27.8295 11.7449 10.7413
1 27.831 12.5543 9.9548
1 27.0407 11.772 9.94637
1 28.6232 12.5386 10.7413
1 29.4169 11.7449 10.7413
1 29.3102 12.5364 9.89201
1 28.576 11.7332 9.94528
1 0.05 10.9512 10.7413
1 0.843701 10.1575 10.7413
1 0.872383 10.9622 9.93977
1 0.128432 10.157 9.91001
1 1.6374 10.9512 10.7413
1 2.4311 10.1575 10.7413
1 2.45141 10.973 9.94666
1 1.66706 10.1421 9.95746
1 3.2248 10.9512 10.7413
1 4.0185 10.1575 10.7413
1 4.02883 10.9358 9.94061
1 3.2285 10.1558 9.93596
1 4.8122 10.9512 10.7413
1 5.6059 10.1575 10.7413
1 5.60392 10.943 9.94102
1 4.83087 10.135 9.94241
1 6.3996 10.9512 10.7413
1 7.1933 10.1575 10.7413
1 7.19164 10.9266 9.9493
1 6.40912 10.1571 9.91345
1 7.98701 10.9512 10.7413
1 8.78071 10.1575 10.7413
1 8.78617 10.9449 9.9155
1 7.97411 10.1381 9.937
1 9.57441 10.9512 10.7413
1 10.3681 10.1575 10.7413
1 10.3725 10.9659 9.96648
1 9.58658 10.1403 9.96373
1 11.1618 10.9512 10.7413
1 11.9555 10.1575 10.7413
1 11.9663 10.9479 9.93932
1 11.1819 10.1636 9.95717
1 12.7492 10.9512 10.7413
1 13.5429 10.1575 10.7413
1 13.5559 10.9429 9.94603
1 12.7431 10.1278 9.95208
1 14.3366 10.9512 10.7413
1 15.1303 10.1575 10.7413
1 15.1364 10.9661 9.9361
1 14.3595 10.1565 9.94231
1 15.924 10.9512 10.7413
1 16.7177 10.1575 10.7413
1 16.697 10.9282 9.93785
1 15.9341 10.1524 9.95383
1 17.5114 10.9512 10.7413
1 18.3051 10.1575 10.7413
1 18.3052 10.9462 9.94795
1 17.5106 10.1512 9.95931
1 19.0988 10.9512 10.7413
1 19.8925 10.1575 10.7413
1 19.9179 10.9698 9.95059
1 19.0926 10.1765 9.95322
1 20.6862 10.9512 10.7413
1 21.4799 10.1575 10.7413
1 21.4543 10.986 9.92749
1 20.7037 10.1602 9.93376
1 22.2736 10.9512 10.7413
1 23.0673 10.1575 10.7413
1 23.0566 10.9426 9.98177
1 22.2611 10.1646 9.93699
1 23.861 10.9512 10.7413
1 24.6547 10.1575 10.7413
1 24.6415 10.9533 9.96965
1 23.8324 10.1636 9.92375
1 25.4484 10.9512 10.7413
1 26.2421 10.1575 10.7413
1 26.2288 10.9518 9.97442
1 25.4304 10.1668 9.95443
1 27.0358 10.9512 10.7413
1 27.8295 10.1575 10.7413
1 27.805 10.9429 9.96434
1 26.9935 10.1499 9.96975
1 28.6232 10.9512 10.7413
1 29.4169 10.1575 10.7413
1 29.3243 10.9619 9.91882
1 28.5848 10.1593 9.94099
1 0.05 9.36379 10.7413
1 0.843701 8.57009 10.7413
1 0.881071 9.35206 9.9367
1 0.117427 8.57083 9.92662
1 1.6374 9.36379 10.7413
1 2.4311 8.57009 10.7413
1 2.41639 9.32302 9.96144
1 1.65581 8.56243 9.97323
1 3.2248 9.36379 10.7413
1 4.0185 8.57009 10.7413
1 4.03155 9.35445 9.95386
1 3.21404 8.57708 9.9467
1 4.8122 9.36379 10.7413
1 5.6059 8.57009 10.7413
1 5.59301 9.35552 9.95525
1 4.80169 8.57604 9.9479
1 6.3996 9.36379 10.7413
1 7.1933 8.57009 10.7413
1 7.15984 9.3511 9.97469
1 6.35119 8.55097 9.94178
1 7.98701 9.36379 10.7413
1 8.78071 8.57009 10.7413
1 8.78233 9.36109 9.95075
1 7.95996 8.5936 9.96409
1 9.57441 9.36379 10.7413
1 10.3681 8.57009 10.7413
1 10.3916 9.34703 9.95203
1 9.59036 8.57184 9.93523
1 11.1618 9.36379 10.7413
1 11.9555 8.57009 10.7413
1 11.9602 9.3631 9.94095
1 11.1843 8.55358 9.94072
1 12.7492 9.36379 10.7413
1 13.5429 8.57009 10.7413
1 13.5536 9.36116 9.97146
1 12.7512 8.57536 9.95075
1 14.3366 9.36379 10.7413
1 15.1303 8.57009 10.7413
1 15.1341 9.36199 9.95155
1 14.3507 8.60284 9.96688
1 15.924 9.36379 10.7413
1 16.7177 8.57009 10.7413
1 16.6899 9.37206 9.948
1 15.9421 8.56706 9.95092
1 17.5114 9.36379 10.7413
1 18.3051 8.57009 10.7413
1 18.3026 9.35728 9.93075
1 17.5138 8.54305 9.95404
1 19.0988 9.36379 10.7413
1 19.8925 8.57009 10.7413
1 19.9205 9.37144 9.95616
1 19.1007 8.56017 9.95543
1 20.6862 9.36379 10.7413
1 21.4799 8.57009 10.7413
1 21.4832 9.33491 9.9519
1 20.6969 8.56428 9.96314
1 22.2736 9.36379 10.7413
1 23.0673 8.57009 10.7413
1 23.0432 9.34607 9.93775
1 22.2675 8.55597 9.95761
1 23.861 9.36379 10.7413
1 24.6547 8.57009 10.7413
1 24.646 9.3478 9.95989
1 23.8771 8.55737 9.93247
1 25.4484 9.36379 10.7413
1 26.2421 8.57009 10.7413
1 26.2286 9.36048 9.95354
1 25.448 8.58592 9.95224
1 27.0358 9.36379 10.7413
1 27.8295 8.57009 10.7413
1 27.8045 9.36189 9.94228
1 27.0122 8.56191 9.93972
1 28.6232 9.36379 10.7413
1 29.4169 8.57009 10.7413
1 29.3413 9.34896 9.93167
1 28.5706 8.56565 9.91326
1 0.05 7.77639 10.7413
1 0.843701 6.98268 10.7413
1 0.868333 7.79167 9.93274
1 0.123348 6.98876 9.92483
1 1.6374 7.77639 10.7413
1 2.4311 6.98268 10.7413
1 2.43023 7.7646 9.98635
1 1.66026 6.9733 9.93743
1 3.2248 7.77639 10.7413
1 4.0185 6.98268 10.7413
1 4.02575 7.77143 9.9815
1 3.21932 6.95651 9.96295
1 4.8122 7.77639 10.7413
1 5.6059 6.98268 10.7413
1 5.59931 7.78184 9.94624
1 4.82373 6.9955 9.96094
1 6.3996 7.77639 10.7413
1 7.1933 6.98268 10.7413
1 7.16599 7.78667 9.93462
1 6.41272 6.99502 9.95455
1 7.98701 7.77639 10.7413
1 8.78071 6.98268 10.7413
1 8.76003 7.77642 9.96673
1 7.97923 6.96472 9.95869
1 9.57441 7.77639 10.7413
1 10.3681 6.98268 10.7413
1 10.3728 7.7708 9.96988
1 9.57761 6.97167 9.94088
1 11.1618 7.77639 10.7413
1 11.9555 6.98268 10.7413
1 11.9706 7.76334 9.95237
1 11.1685 6.97705 9.97666
1 12.7492 7.77639 10.7413
1 13.5429 6.98268 10.7413
1 13.5583 7.80063 9.94932
1 12.7589 6.98658 9.95788
1 14.3366 7.77639 10.7413
1 15.1303 6.98268 10.7413
1 15.1302 7.78507 9.92376
1 14.3509 6.98231 9.95961
1 15.924 7.77639 10.7413
1 16.7177 6.98268 10.7413
1 16.7176 7.77294 9.95592
1 15.9538 7.0075 9.94891
1 17.5114 7.77639 10.7413
1 18.3051 6.98268 10.7413
1 18.3133 7.7493 9.94813
1 17.492 6.95872 9.93299
1 19.0988 7.77639 10.7413
1 19.8925 6.98268 10.7413
1 19.9148 7.76964 9.96752
1 19.0998 6.97168 9.96221
1 20.6862 7.77639 10.7413
1 21.4799 6.98268 10.7413
1 21.4656 7.78926 9.94129
1 20.6801 6.95631 9.95092
1 22.2736 7.77639 10.7413
1 23.0673 6.98268 10.7413
1 23.0688 7.79398 9.94794
1 22.2659 6.98589 9.96399
1 23.861 7.77639 10.7413
1 24.6547 6.98268 10.7413
1 24.662 7.7708 9.93492
1 23.8508 6.99536 9.96545
1 25.4484 7.77639 10.7413
1 26.2421 6.98268 10.7413
1 26.2299 7.75119 9.94716
1 25.4389 6.97388 9.98018
1 27.0358 7.77639 10.7413
1 27.8295 6.98268 10.7413
1 27.8239 7.76331 9.94275
1 27.0222 6.97577 9.92808
1 28.6232 7.77639 10.7413
1 29.4169 6.98268 10.7413
1 29.3365 7.78345 9.92147
1 28.5905 6.99746 9.93074
1 0.05 6.18898 10.7413
1 0.843701 5.39528 10.7413
1 0.847539 6.20902 9.92629
1 0.112291 5.40079 9.89963
1 1.6374 6.18898 10.7413
1 2.4311 5.39528 10.7413
1 2.45479 6.16569 9.94171
1 1.65699 5.39806 9.94905
1 3.2248 6.18898 10.7413
1 4.0185 5.39528 10.7413
1 4.02928 6.18821 9.94613
1 3.19733 5.36865 9.96348
1 4.8122 6.18898 10.7413
1 5.6059 5.39528 10.7413
1 5.62285 6.20588 9.92259
1 4.81474 5.40949 9.9657
1 6.3996 6.18898 10.7413
1 7.1933 5.39528 10.7413
1 7.18906 6.19121 9.92881
1 6.40338 5.41213 9.94905
1 7.98701 6.18898 10.7413
1 8.78071 5.39528 10.7413
1 8.77143 6.19091 9.96785
1 7.98489 5.3835 9.93468
1 9.57441 6.18898 10.7413