LAMMPS (5 Jun 2019)
OMP_NUM_THREADS environment is not set. Defaulting to 1 thread. (src/comm.cpp:88)
  using 1 OpenMP thread(s) per MPI task
#--- Brush Variables---#
variable      f      equal  2
variable      M      equal  $(v_f * 30)                 # The number of polymer chains on each brush
variable      M      equal  60                 
variable      N      string 30                 # The number of beads per chain
variable      xhi    equal  $(sqrt(v_f) * 20)                 # The width of the polymer Brush
variable      xhi    equal  28.284271247461902021                 
variable      yhi    equal  $(sqrt(v_f) * 20)                 # The length of the polymer Brush
variable      yhi    equal  28.284271247461902021                 
variable      wthick equal  3                  # The thickness of the walls wthick=1,2,3,4 gives 2,3,4,6 layers respectively

#--- Simulation Variables ---#
variable       Temp      index 1        #0.8 1 1.68                 #[Grest96]
variable       Tstep     equal 0.005                       # Timestep in Tau (default = 0.005)
variable       Nequil    equal 300000                       # Number of timesteps to equilibrate
variable       Ncomp     equal 700000                     # Number of timesteps to compress - until no more occilation of walls
variable       Nshear    equal 4000000      #2000000                      # Number of timesteps to shear - use approx 4ns for 10m/s
variable       Nthermo   equal 1000                        # Number of timesteps between thermo data prints
variable       Ndump_e   equal 10000
variable       Ndump_c   equal 10000                      # Number of timesteps per dump file (compression)
variable       Ndump_s   equal 10000                       # Number of timesteps per dump file (shear)
variable       Wall_v    index 0.00000005   #0.001 0.01 0.1 0.2 0.4 0.6 0.8 1 1.2 1.4 1.6 1.8 2   # 0.005 0.05 0.1 0.5 1.5 0.001 0.003 0.2 0.0002 2                      # Wall velocity (A/fs) - equal to 10 m/s
variable       Pcomp     index 1 # 0.5 2 0.05 4 8

include        MDPBB.in
# This is an input script that creates a mono disperse polymer brush bilayer
# A coarse grained bead-spring model is used for the polymers which are end
# grafted to the surfaces of 2 opposing FCC walls at random sites.

#--- Initialization ---#

dimension     3
boundary      p p f
units         lj
atom_style    bond


#--- Moved to main.in ---#
#variable      M      equal  50                # The number of polymer chains on each brush
#variable      N      string 80                # The number of beads per chain
#variable      xhi    equal  15                # The width of the polymer Brush
#variable      yhi    equal  20                # The length of the polymer Brush
#variable      wthick equal  3                 # The thickness of the walls wthick=1,2,3,4 gives 2,3,4,6 layers respectively

variable      zhi    equal  $(1.1 * 2 * v_N + (2 * v_wthick))  # The initial height of the simulation box the value is such that no overlaps occur
variable      zhi    equal  72  
variable      z0     equal  $((v_zhi)/4 - (v_N)/30)          # This is the location at which to place the CoM of the molecule
variable      z0     equal  17          

print "The number of grafted chains = $(v_M)"
The number of grafted chains = 60
print "The number of beads per chain = $(v_N)"
The number of beads per chain = 30

variable      check  equal count(all)         # The number of atoms in the system
variable      ntwall equal count(twall)       # The number of atoms in the top wall
variable      nbwall equal count(bwall)       # The number of atoms in the bottom wall
variable      s equal 234897  #45335              # Seed for the RNG

print "zhi = ${zhi}"
zhi = 72

#--- Create the simulation box ---#

region        sbox block 0 ${xhi} 0 ${yhi} 0 ${zhi}
region        sbox block 0 28.2842712474619 0 ${yhi} 0 ${zhi}
region        sbox block 0 28.2842712474619 0 28.2842712474619 0 ${zhi}
region        sbox block 0 28.2842712474619 0 28.2842712474619 0 72
create_box    4 sbox bond/types 3 extra/bond/per/atom 12 extra/special/per/atom 2
Created orthogonal box = (0 0 0) to (28.2843 28.2843 72)
  1 by 1 by 1 MPI processor grid

mass          1 2.0                   # Wall atoms that are not grafted
mass          2 1.0                   # Grafted bead
mass          3 1.0                   # The rest of the beads on the chain
mass          4 2.0                   # Wall atoms that the chains are grafted to

bond_style    hybrid fene harmonic    # Finitely extensible linearly elastic bond between neighbouring beads
#bond_coeff    1 fene 30.0 1.5 0.0 0.0      # Values obtained from literature [Grest, Galushcko]
bond_coeff    1 fene 30.0 30.0 0.0 0.0
bond_coeff    2 fene 30.0 30.0 0.0 0.0       # This is the grafting bond between the polymer and the wall atom
special_bonds fene                    #
  0 = max # of 1-2 neighbors
  5 = max # of special neighbors
  special bonds CPU = 0.0003409 secs
pair_style	  lj/cut 1.122462         # LJ potential with rc=2^1/6
#pair_coeff	  * * 1.0 1.0             # LJ potential acts between all atoms
pair_coeff    1 1 0.0 0.0
pair_coeff    1 2 1.0 1.0
pair_coeff    1 3 1.0 1.0
pair_coeff    2 2 1.0 1.0
pair_coeff    2 3 1.0 1.0
pair_coeff    2 4 1.0 1.0
pair_coeff    3 3 1.0 1.0
pair_coeff    3 4 1.0 1.0
pair_coeff    4 4 0.0 0.0
neighbor      10 bin                  #
neigh_modify  one 4000

#--- Create and read the molecule file ---#
python        BSMolf input 1 $N format i file BSMolf.py
python        BSMolf input 1 30 format i file BSMolf.py
python        BSMolf invoke    # Call the python function with number of beads to write the mol file
molecule      bs     bsmol.txt     # Read the Mol file to define the polymer chain
Read molecule bs:
  30 atoms with max type 2
  29 bonds with max type 1
  0 angles with max type 0
  0 dihedrals with max type 0
  0 impropers with max type 0

#--- Define the FCC wall region ---#
region        wall  block 0 ${xhi} 0 ${yhi} 0 ${wthick}
region        wall  block 0 28.2842712474619 0 ${yhi} 0 ${wthick}
region        wall  block 0 28.2842712474619 0 28.2842712474619 0 ${wthick}
region        wall  block 0 28.2842712474619 0 28.2842712474619 0 3
lattice       fcc 1
Lattice spacing in x,y,z = 1.5874 1.5874 1.5874

#--- Create the Top Brush  (At the bottom then rotate 180 degrees to top) ---#

create_atoms  1 region wall
Created 2592 atoms
  create_atoms CPU = 0.001527 secs
group         twall  region wall
2592 atoms in group twall
#group         tsurf  region wsurf

# A loop to insert the Chains into the sim box
variable      i loop $M                                   # Index to insert N total number of chains
variable      i loop 60                                   
label         loop                                        # Start of loop
variable      randni equal round(random(1,${ntwall},$s))  # Pick a random "top" wall atom
variable      randni equal round(random(1,2592,$s))  
variable      randni equal round(random(1,2592,234897))  
variable      randatomi equal ${randni}                   # This is to obtain an integer number for atom-id
variable      randatomi equal 1628                   
variable      randzi equal z[${randatomi}]                # Determine the z coordinate of the chosen atom
variable      randzi equal z[1628]                
# if the chosen atom is not a surface atom then restart the loop
if            "${randzi} < $(v_wthick - 0.7)" then "jump MDPBB.in loop"
set           atom ${randatomi} type 4                    # Set this grafted wall atom as a new type
set           atom 1628 type 4                    
  1 settings made for type
group         twg id ${randatomi}                         # Add this atom to a top-wall-grafted group
group         twg id 1628                         
1 atoms in group twg
variable      twgcount equal count(twg)
print         "twg contains ${twgcount}"
twg contains 1
print         "i = $(v_i)"                                # The index i should always be equal to the number of atom in twg
i = 1
variable      x0 equal x[${randatomi}]                    # Determine its x-coord
variable      x0 equal x[1628]                    
variable      y0 equal y[${randatomi}]                    # Determine its y-coord
variable      y0 equal y[1628]                    
variable      check0 equal ${check}                       # Count the number of atoms in the simulation
variable      check0 equal 2592                       
variable      b equal ${check}+1                          # The grafted bead id will be one higher after being inserted
variable      b equal 2592+1                          
if            "${twgcount} != $(v_i)" then "jump MDPBB.in loop"
# Otherwise insert the chain directly above the chosen wall atom pointing perpendicular to the wall
create_atoms  1 single ${x0} ${y0} ${z0} mol bs 24987 units box remap yes rotate 0 0 0 1
create_atoms  1 single 15.874010519682 ${y0} ${z0} mol bs 24987 units box remap yes rotate 0 0 0 1
create_atoms  1 single 15.874010519682 7.1433047338569 ${z0} mol bs 24987 units box remap yes rotate 0 0 0 1
create_atoms  1 single 15.874010519682 7.1433047338569 17 mol bs 24987 units box remap yes rotate 0 0 0 1
Created 30 atoms
  create_atoms CPU = 0.0001093 secs
variable      check1 equal ${check}               # Count the new total number of atoms
variable      check1 equal 2622               
# Check that the molecule has indeed been inserted (This check is no longer an issue).
if            "${check1} != ${check0}" then "create_bonds  single/bond 2 ${randatomi} $b" "next i"
create_bonds  single/bond 2 ${randatomi} $b
create_bonds  single/bond 2 1628 $b
create_bonds  single/bond 2 1628 2593
  2 = max # of 1-2 neighbors
  5 = max # of special neighbors
  special bonds CPU = 0.0052526 secs
next i
jump MDPBB.in loop    # End of the loop
variable      randni equal round(random(1,${ntwall},$s))  # Pick a random "top" wall atom
variable      randni equal round(random(1,2592,$s))  
variable      randni equal round(random(1,2592,234897))  
variable      randatomi equal ${randni}                   # This is to obtain an integer number for atom-id
variable      randatomi equal 408                   
variable      randzi equal z[${randatomi}]                # Determine the z coordinate of the chosen atom
variable      randzi equal z[408]                
# if the chosen atom is not a surface atom then restart the loop
if            "${randzi} < $(v_wthick - 0.7)" then "jump MDPBB.in loop"
jump MDPBB.in loop
variable      randni equal round(random(1,${ntwall},$s))  # Pick a random "top" wall atom
variable      randni equal round(random(1,2592,$s))  
variable      randni equal round(random(1,2592,234897))  
variable      randatomi equal ${randni}                   # This is to obtain an integer number for atom-id
variable      randatomi equal 1958                   
variable      randzi equal z[${randatomi}]                # Determine the z coordinate of the chosen atom
variable      randzi equal z[1958]                
# if the chosen atom is not a surface atom then restart the loop
if            "${randzi} < $(v_wthick - 0.7)" then "jump MDPBB.in loop"
jump MDPBB.in loop
variable      randni equal round(random(1,${ntwall},$s))  # Pick a random "top" wall atom
variable      randni equal round(random(1,2592,$s))  
variable      randni equal round(random(1,2592,234897))  
variable      randatomi equal ${randni}                   # This is to obtain an integer number for atom-id
variable      randatomi equal 1976                   
variable      randzi equal z[${randatomi}]                # Determine the z coordinate of the chosen atom
variable      randzi equal z[1976]                
# if the chosen atom is not a surface atom then restart the loop
if            "${randzi} < $(v_wthick - 0.7)" then "jump MDPBB.in loop"
set           atom ${randatomi} type 4                    # Set this grafted wall atom as a new type
set           atom 1976 type 4                    
  1 settings made for type
group         twg id ${randatomi}                         # Add this atom to a top-wall-grafted group
group         twg id 1976                         
2 atoms in group twg
variable      twgcount equal count(twg)
print         "twg contains ${twgcount}"
twg contains 2
print         "i = $(v_i)"                                # The index i should always be equal to the number of atom in twg
i = 2
variable      x0 equal x[${randatomi}]                    # Determine its x-coord
variable      x0 equal x[1976]                    
variable      y0 equal y[${randatomi}]                    # Determine its y-coord
variable      y0 equal y[1976]                    
variable      check0 equal ${check}                       # Count the number of atoms in the simulation
variable      check0 equal 2622                       
variable      b equal ${check}+1                          # The grafted bead id will be one higher after being inserted
variable      b equal 2622+1                          
if            "${twgcount} != $(v_i)" then "jump MDPBB.in loop"
# Otherwise insert the chain directly above the chosen wall atom pointing perpendicular to the wall
create_atoms  1 single ${x0} ${y0} ${z0} mol bs 24987 units box remap yes rotate 0 0 0 1
create_atoms  1 single 11.1118073637774 ${y0} ${z0} mol bs 24987 units box remap yes rotate 0 0 0 1
create_atoms  1 single 11.1118073637774 15.0803099936979 ${z0} mol bs 24987 units box remap yes rotate 0 0 0 1
create_atoms  1 single 11.1118073637774 15.0803099936979 17 mol bs 24987 units box remap yes rotate 0 0 0 1
Created 30 atoms
  create_atoms CPU = 9.41e-05 secs
variable      check1 equal ${check}               # Count the new total number of atoms
variable      check1 equal 2652               
# Check that the molecule has indeed been inserted (This check is no longer an issue).
if            "${check1} != ${check0}" then "create_bonds  single/bond 2 ${randatomi} $b" "next i"
create_bonds  single/bond 2 ${randatomi} $b
create_bonds  single/bond 2 1976 $b
create_bonds  single/bond 2 1976 2623
  2 = max # of 1-2 neighbors
  5 = max # of special neighbors
  special bonds CPU = 0.0024444 secs
next i
jump MDPBB.in loop    # End of the loop
variable      randni equal round(random(1,${ntwall},$s))  # Pick a random "top" wall atom
variable      randni equal round(random(1,2592,$s))  
variable      randni equal round(random(1,2592,234897))  
variable      randatomi equal ${randni}                   # This is to obtain an integer number for atom-id
variable      randatomi equal 1883                   
variable      randzi equal z[${randatomi}]                # Determine the z coordinate of the chosen atom
variable      randzi equal z[1883]                
# if the chosen atom is not a surface atom then restart the loop
if            "${randzi} < $(v_wthick - 0.7)" then "jump MDPBB.in loop"
set           atom ${randatomi} type 4                    # Set this grafted wall atom as a new type
set           atom 1883 type 4                    
  1 settings made for type
group         twg id ${randatomi}                         # Add this atom to a top-wall-grafted group
group         twg id 1883                         
3 atoms in group twg
variable      twgcount equal count(twg)
print         "twg contains ${twgcount}"
twg contains 3
print         "i = $(v_i)"                                # The index i should always be equal to the number of atom in twg
i = 3
variable      x0 equal x[${randatomi}]                    # Determine its x-coord
variable      x0 equal x[1883]                    
variable      y0 equal y[${randatomi}]                    # Determine its y-coord
variable      y0 equal y[1883]                    
variable      check0 equal ${check}                       # Count the number of atoms in the simulation
variable      check0 equal 2652                       
variable      b equal ${check}+1                          # The grafted bead id will be one higher after being inserted
variable      b equal 2652+1                          
if            "${twgcount} != $(v_i)" then "jump MDPBB.in loop"
# Otherwise insert the chain directly above the chosen wall atom pointing perpendicular to the wall
create_atoms  1 single ${x0} ${y0} ${z0} mol bs 24987 units box remap yes rotate 0 0 0 1
create_atoms  1 single 3.9685026299205 ${y0} ${z0} mol bs 24987 units box remap yes rotate 0 0 0 1
create_atoms  1 single 3.9685026299205 12.6992084157456 ${z0} mol bs 24987 units box remap yes rotate 0 0 0 1
create_atoms  1 single 3.9685026299205 12.6992084157456 17 mol bs 24987 units box remap yes rotate 0 0 0 1
Created 30 atoms
  create_atoms CPU = 0.0001221 secs
variable      check1 equal ${check}               # Count the new total number of atoms
variable      check1 equal 2682               
# Check that the molecule has indeed been inserted (This check is no longer an issue).
if            "${check1} != ${check0}" then "create_bonds  single/bond 2 ${randatomi} $b" "next i"
create_bonds  single/bond 2 ${randatomi} $b
create_bonds  single/bond 2 1883 $b
create_bonds  single/bond 2 1883 2653
  2 = max # of 1-2 neighbors
  5 = max # of special neighbors
  special bonds CPU = 0.0026872 secs
next i
jump MDPBB.in loop    # End of the loop
variable      randni equal round(random(1,${ntwall},$s))  # Pick a random "top" wall atom
variable      randni equal round(random(1,2592,$s))  
variable      randni equal round(random(1,2592,234897))  
variable      randatomi equal ${randni}                   # This is to obtain an integer number for atom-id
variable      randatomi equal 2554                   
variable      randzi equal z[${randatomi}]                # Determine the z coordinate of the chosen atom
variable      randzi equal z[2554]                
# if the chosen atom is not a surface atom then restart the loop
if            "${randzi} < $(v_wthick - 0.7)" then "jump MDPBB.in loop"
jump MDPBB.in loop
variable      randni equal round(random(1,${ntwall},$s))  # Pick a random "top" wall atom
variable      randni equal round(random(1,2592,$s))  
variable      randni equal round(random(1,2592,234897))  
variable      randatomi equal ${randni}                   # This is to obtain an integer number for atom-id
variable      randatomi equal 1232                   
variable      randzi equal z[${randatomi}]                # Determine the z coordinate of the chosen atom
variable      randzi equal z[1232]                
# if the chosen atom is not a surface atom then restart the loop
if            "${randzi} < $(v_wthick - 0.7)" then "jump MDPBB.in loop"
jump MDPBB.in loop
variable      randni equal round(random(1,${ntwall},$s))  # Pick a random "top" wall atom
variable      randni equal round(random(1,2592,$s))  
variable      randni equal round(random(1,2592,234897))  
variable      randatomi equal ${randni}                   # This is to obtain an integer number for atom-id
variable      randatomi equal 869                   
variable      randzi equal z[${randatomi}]                # Determine the z coordinate of the chosen atom
variable      randzi equal z[869]                
# if the chosen atom is not a surface atom then restart the loop
if            "${randzi} < $(v_wthick - 0.7)" then "jump MDPBB.in loop"
jump MDPBB.in loop
variable      randni equal round(random(1,${ntwall},$s))  # Pick a random "top" wall atom
variable      randni equal round(random(1,2592,$s))  
variable      randni equal round(random(1,2592,234897))  
variable      randatomi equal ${randni}                   # This is to obtain an integer number for atom-id
variable      randatomi equal 1122                   
variable      randzi equal z[${randatomi}]                # Determine the z coordinate of the chosen atom
variable      randzi equal z[1122]                
# if the chosen atom is not a surface atom then restart the loop
if            "${randzi} < $(v_wthick - 0.7)" then "jump MDPBB.in loop"
jump MDPBB.in loop
variable      randni equal round(random(1,${ntwall},$s))  # Pick a random "top" wall atom
variable      randni equal round(random(1,2592,$s))  
variable      randni equal round(random(1,2592,234897))  
variable      randatomi equal ${randni}                   # This is to obtain an integer number for atom-id
variable      randatomi equal 1876                   
variable      randzi equal z[${randatomi}]                # Determine the z coordinate of the chosen atom
variable      randzi equal z[1876]                
# if the chosen atom is not a surface atom then restart the loop
if            "${randzi} < $(v_wthick - 0.7)" then "jump MDPBB.in loop"
set           atom ${randatomi} type 4                    # Set this grafted wall atom as a new type
set           atom 1876 type 4                    
  1 settings made for type
group         twg id ${randatomi}                         # Add this atom to a top-wall-grafted group
group         twg id 1876                         
4 atoms in group twg
variable      twgcount equal count(twg)
print         "twg contains ${twgcount}"
twg contains 4
print         "i = $(v_i)"                                # The index i should always be equal to the number of atom in twg
i = 4
variable      x0 equal x[${randatomi}]                    # Determine its x-coord
variable      x0 equal x[1876]                    
variable      y0 equal y[${randatomi}]                    # Determine its y-coord
variable      y0 equal y[1876]                    
variable      check0 equal ${check}                       # Count the number of atoms in the simulation
variable      check0 equal 2682                       
variable      b equal ${check}+1                          # The grafted bead id will be one higher after being inserted
variable      b equal 2682+1                          
if            "${twgcount} != $(v_i)" then "jump MDPBB.in loop"
# Otherwise insert the chain directly above the chosen wall atom pointing perpendicular to the wall
create_atoms  1 single ${x0} ${y0} ${z0} mol bs 24987 units box remap yes rotate 0 0 0 1
create_atoms  1 single 0 ${y0} ${z0} mol bs 24987 units box remap yes rotate 0 0 0 1
create_atoms  1 single 0 13.4929089417297 ${z0} mol bs 24987 units box remap yes rotate 0 0 0 1
create_atoms  1 single 0 13.4929089417297 17 mol bs 24987 units box remap yes rotate 0 0 0 1
Created 30 atoms
  create_atoms CPU = 7.08e-05 secs
variable      check1 equal ${check}               # Count the new total number of atoms
variable      check1 equal 2712               
# Check that the molecule has indeed been inserted (This check is no longer an issue).
if            "${check1} != ${check0}" then "create_bonds  single/bond 2 ${randatomi} $b" "next i"
create_bonds  single/bond 2 ${randatomi} $b
create_bonds  single/bond 2 1876 $b
create_bonds  single/bond 2 1876 2683
  2 = max # of 1-2 neighbors
  5 = max # of special neighbors
  special bonds CPU = 0.002646 secs
next i
jump MDPBB.in loop    # End of the loop
variable      randni equal round(random(1,${ntwall},$s))  # Pick a random "top" wall atom
variable      randni equal round(random(1,2592,$s))  
variable      randni equal round(random(1,2592,234897))  
variable      randatomi equal ${randni}                   # This is to obtain an integer number for atom-id
variable      randatomi equal 2321                   
variable      randzi equal z[${randatomi}]                # Determine the z coordinate of the chosen atom
variable      randzi equal z[2321]                
# if the chosen atom is not a surface atom then restart the loop
if            "${randzi} < $(v_wthick - 0.7)" then "jump MDPBB.in loop"
jump MDPBB.in loop
variable      randni equal round(random(1,${ntwall},$s))  # Pick a random "top" wall atom
variable      randni equal round(random(1,2592,$s))  
variable      randni equal round(random(1,2592,234897))  
variable      randatomi equal ${randni}                   # This is to obtain an integer number for atom-id
variable      randatomi equal 19                   
variable      randzi equal z[${randatomi}]                # Determine the z coordinate of the chosen atom
variable      randzi equal z[19]                
# if the chosen atom is not a surface atom then restart the loop
if            "${randzi} < $(v_wthick - 0.7)" then "jump MDPBB.in loop"
jump MDPBB.in loop
variable      randni equal round(random(1,${ntwall},$s))  # Pick a random "top" wall atom
variable      randni equal round(random(1,2592,$s))  
variable      randni equal round(random(1,2592,234897))  
variable      randatomi equal ${randni}                   # This is to obtain an integer number for atom-id
variable      randatomi equal 494                   
variable      randzi equal z[${randatomi}]                # Determine the z coordinate of the chosen atom
variable      randzi equal z[494]                
# if the chosen atom is not a surface atom then restart the loop
if            "${randzi} < $(v_wthick - 0.7)" then "jump MDPBB.in loop"
jump MDPBB.in loop
variable      randni equal round(random(1,${ntwall},$s))  # Pick a random "top" wall atom
variable      randni equal round(random(1,2592,$s))  
variable      randni equal round(random(1,2592,234897))  
variable      randatomi equal ${randni}                   # This is to obtain an integer number for atom-id
variable      randatomi equal 847                   
variable      randzi equal z[${randatomi}]                # Determine the z coordinate of the chosen atom
variable      randzi equal z[847]                
# if the chosen atom is not a surface atom then restart the loop
if            "${randzi} < $(v_wthick - 0.7)" then "jump MDPBB.in loop"
jump MDPBB.in loop
variable      randni equal round(random(1,${ntwall},$s))  # Pick a random "top" wall atom
variable      randni equal round(random(1,2592,$s))  
variable      randni equal round(random(1,2592,234897))  
variable      randatomi equal ${randni}                   # This is to obtain an integer number for atom-id
variable      randatomi equal 2100                   
variable      randzi equal z[${randatomi}]                # Determine the z coordinate of the chosen atom
variable      randzi equal z[2100]                
# if the chosen atom is not a surface atom then restart the loop
if            "${randzi} < $(v_wthick - 0.7)" then "jump MDPBB.in loop"
set           atom ${randatomi} type 4                    # Set this grafted wall atom as a new type
set           atom 2100 type 4                    
  1 settings made for type
group         twg id ${randatomi}                         # Add this atom to a top-wall-grafted group
group         twg id 2100                         
5 atoms in group twg
variable      twgcount equal count(twg)
print         "twg contains ${twgcount}"
twg contains 5
print         "i = $(v_i)"                                # The index i should always be equal to the number of atom in twg
i = 5
variable      x0 equal x[${randatomi}]                    # Determine its x-coord
variable      x0 equal x[2100]                    
variable      y0 equal y[${randatomi}]                    # Determine its y-coord
variable      y0 equal y[2100]                    
variable      check0 equal ${check}                       # Count the number of atoms in the simulation
variable      check0 equal 2712                       
variable      b equal ${check}+1                          # The grafted bead id will be one higher after being inserted
variable      b equal 2712+1                          
if            "${twgcount} != $(v_i)" then "jump MDPBB.in loop"
# Otherwise insert the chain directly above the chosen wall atom pointing perpendicular to the wall
create_atoms  1 single ${x0} ${y0} ${z0} mol bs 24987 units box remap yes rotate 0 0 0 1
create_atoms  1 single 3.1748021039364 ${y0} ${z0} mol bs 24987 units box remap yes rotate 0 0 0 1
create_atoms  1 single 3.1748021039364 18.2551120976343 ${z0} mol bs 24987 units box remap yes rotate 0 0 0 1
create_atoms  1 single 3.1748021039364 18.2551120976343 17 mol bs 24987 units box remap yes rotate 0 0 0 1
Created 30 atoms
  create_atoms CPU = 0.0001408 secs
variable      check1 equal ${check}               # Count the new total number of atoms
variable      check1 equal 2742               
# Check that the molecule has indeed been inserted (This check is no longer an issue).
if            "${check1} != ${check0}" then "create_bonds  single/bond 2 ${randatomi} $b" "next i"
create_bonds  single/bond 2 ${randatomi} $b
create_bonds  single/bond 2 2100 $b
create_bonds  single/bond 2 2100 2713
  2 = max # of 1-2 neighbors
  5 = max # of special neighbors
  special bonds CPU = 0.0037233 secs
next i
jump MDPBB.in loop    # End of the loop
variable      randni equal round(random(1,${ntwall},$s))  # Pick a random "top" wall atom
variable      randni equal round(random(1,2592,$s))  
variable      randni equal round(random(1,2592,234897))  
variable      randatomi equal ${randni}                   # This is to obtain an integer number for atom-id
variable      randatomi equal 1839                   
variable      randzi equal z[${randatomi}]                # Determine the z coordinate of the chosen atom
variable      randzi equal z[1839]                
# if the chosen atom is not a surface atom then restart the loop
if            "${randzi} < $(v_wthick - 0.7)" then "jump MDPBB.in loop"
set           atom ${randatomi} type 4                    # Set this grafted wall atom as a new type
set           atom 1839 type 4                    
  1 settings made for type
group         twg id ${randatomi}                         # Add this atom to a top-wall-grafted group
group         twg id 1839                         
6 atoms in group twg
variable      twgcount equal count(twg)
print         "twg contains ${twgcount}"
twg contains 6
print         "i = $(v_i)"                                # The index i should always be equal to the number of atom in twg
i = 6
variable      x0 equal x[${randatomi}]                    # Determine its x-coord
variable      x0 equal x[1839]                    
variable      y0 equal y[${randatomi}]                    # Determine its y-coord
variable      y0 equal y[1839]                    
variable      check0 equal ${check}                       # Count the number of atoms in the simulation
variable      check0 equal 2742                       
variable      b equal ${check}+1                          # The grafted bead id will be one higher after being inserted
variable      b equal 2742+1                          
if            "${twgcount} != $(v_i)" then "jump MDPBB.in loop"
# Otherwise insert the chain directly above the chosen wall atom pointing perpendicular to the wall
create_atoms  1 single ${x0} ${y0} ${z0} mol bs 24987 units box remap yes rotate 0 0 0 1
create_atoms  1 single 15.0803099936979 ${y0} ${z0} mol bs 24987 units box remap yes rotate 0 0 0 1
create_atoms  1 single 15.0803099936979 11.1118073637774 ${z0} mol bs 24987 units box remap yes rotate 0 0 0 1
create_atoms  1 single 15.0803099936979 11.1118073637774 17 mol bs 24987 units box remap yes rotate 0 0 0 1
Created 30 atoms
  create_atoms CPU = 6.89e-05 secs
variable      check1 equal ${check}               # Count the new total number of atoms
variable      check1 equal 2772               
# Check that the molecule has indeed been inserted (This check is no longer an issue).
if            "${check1} != ${check0}" then "create_bonds  single/bond 2 ${randatomi} $b" "next i"
create_bonds  single/bond 2 ${randatomi} $b
create_bonds  single/bond 2 1839 $b
create_bonds  single/bond 2 1839 2743
  2 = max # of 1-2 neighbors
  5 = max # of special neighbors
  special bonds CPU = 0.0035484 secs
next i
jump MDPBB.in loop    # End of the loop
variable      randni equal round(random(1,${ntwall},$s))  # Pick a random "top" wall atom
variable      randni equal round(random(1,2592,$s))  
variable      randni equal round(random(1,2592,234897))  
variable      randatomi equal ${randni}                   # This is to obtain an integer number for atom-id
variable      randatomi equal 1785                   
variable      randzi equal z[${randatomi}]                # Determine the z coordinate of the chosen atom
variable      randzi equal z[1785]                
# if the chosen atom is not a surface atom then restart the loop
if            "${randzi} < $(v_wthick - 0.7)" then "jump MDPBB.in loop"
jump MDPBB.in loop
variable      randni equal round(random(1,${ntwall},$s))  # Pick a random "top" wall atom
variable      randni equal round(random(1,2592,$s))  
variable      randni equal round(random(1,2592,234897))  
variable      randatomi equal ${randni}                   # This is to obtain an integer number for atom-id
variable      randatomi equal 1448                   
variable      randzi equal z[${randatomi}]                # Determine the z coordinate of the chosen atom
variable      randzi equal z[1448]                
# if the chosen atom is not a surface atom then restart the loop
if            "${randzi} < $(v_wthick - 0.7)" then "jump MDPBB.in loop"
set           atom ${randatomi} type 4                    # Set this grafted wall atom as a new type
set           atom 1448 type 4                    
  1 settings made for type
group         twg id ${randatomi}                         # Add this atom to a top-wall-grafted group
group         twg id 1448                         
7 atoms in group twg
variable      twgcount equal count(twg)
print         "twg contains ${twgcount}"
twg contains 7
print         "i = $(v_i)"                                # The index i should always be equal to the number of atom in twg
i = 7
variable      x0 equal x[${randatomi}]                    # Determine its x-coord
variable      x0 equal x[1448]                    
variable      y0 equal y[${randatomi}]                    # Determine its y-coord
variable      y0 equal y[1448]                    
variable      check0 equal ${check}                       # Count the number of atoms in the simulation
variable      check0 equal 2772                       
variable      b equal ${check}+1                          # The grafted bead id will be one higher after being inserted
variable      b equal 2772+1                          
if            "${twgcount} != $(v_i)" then "jump MDPBB.in loop"
# Otherwise insert the chain directly above the chosen wall atom pointing perpendicular to the wall
create_atoms  1 single ${x0} ${y0} ${z0} mol bs 24987 units box remap yes rotate 0 0 0 1
create_atoms  1 single 1.5874010519682 ${y0} ${z0} mol bs 24987 units box remap yes rotate 0 0 0 1
create_atoms  1 single 1.5874010519682 3.9685026299205 ${z0} mol bs 24987 units box remap yes rotate 0 0 0 1
create_atoms  1 single 1.5874010519682 3.9685026299205 17 mol bs 24987 units box remap yes rotate 0 0 0 1
Created 30 atoms
  create_atoms CPU = 7.94e-05 secs
variable      check1 equal ${check}               # Count the new total number of atoms
variable      check1 equal 2802               
# Check that the molecule has indeed been inserted (This check is no longer an issue).
if            "${check1} != ${check0}" then "create_bonds  single/bond 2 ${randatomi} $b" "next i"
create_bonds  single/bond 2 ${randatomi} $b
create_bonds  single/bond 2 1448 $b
create_bonds  single/bond 2 1448 2773
  2 = max # of 1-2 neighbors
  5 = max # of special neighbors
  special bonds CPU = 0.0025633 secs
next i
jump MDPBB.in loop    # End of the loop
variable      randni equal round(random(1,${ntwall},$s))  # Pick a random "top" wall atom
variable      randni equal round(random(1,2592,$s))  
variable      randni equal round(random(1,2592,234897))  
variable      randatomi equal ${randni}                   # This is to obtain an integer number for atom-id
variable      randatomi equal 2019                   
variable      randzi equal z[${randatomi}]                # Determine the z coordinate of the chosen atom
variable      randzi equal z[2019]                
# if the chosen atom is not a surface atom then restart the loop
if            "${randzi} < $(v_wthick - 0.7)" then "jump MDPBB.in loop"
set           atom ${randatomi} type 4                    # Set this grafted wall atom as a new type
set           atom 2019 type 4                    
  1 settings made for type
group         twg id ${randatomi}                         # Add this atom to a top-wall-grafted group
group         twg id 2019                         
8 atoms in group twg
variable      twgcount equal count(twg)
print         "twg contains ${twgcount}"
twg contains 8
print         "i = $(v_i)"                                # The index i should always be equal to the number of atom in twg
i = 8
variable      x0 equal x[${randatomi}]                    # Determine its x-coord
variable      x0 equal x[2019]                    
variable      y0 equal y[${randatomi}]                    # Determine its y-coord
variable      y0 equal y[2019]                    
variable      check0 equal ${check}                       # Count the number of atoms in the simulation
variable      check0 equal 2802                       
variable      b equal ${check}+1                          # The grafted bead id will be one higher after being inserted
variable      b equal 2802+1                          
if            "${twgcount} != $(v_i)" then "jump MDPBB.in loop"
# Otherwise insert the chain directly above the chosen wall atom pointing perpendicular to the wall
create_atoms  1 single ${x0} ${y0} ${z0} mol bs 24987 units box remap yes rotate 0 0 0 1
create_atoms  1 single 0.7937005259841 ${y0} ${z0} mol bs 24987 units box remap yes rotate 0 0 0 1
create_atoms  1 single 0.7937005259841 15.874010519682 ${z0} mol bs 24987 units box remap yes rotate 0 0 0 1
create_atoms  1 single 0.7937005259841 15.874010519682 17 mol bs 24987 units box remap yes rotate 0 0 0 1
Created 30 atoms
  create_atoms CPU = 0.000112 secs
variable      check1 equal ${check}               # Count the new total number of atoms
variable      check1 equal 2832               
# Check that the molecule has indeed been inserted (This check is no longer an issue).
if            "${check1} != ${check0}" then "create_bonds  single/bond 2 ${randatomi} $b" "next i"
create_bonds  single/bond 2 ${randatomi} $b
create_bonds  single/bond 2 2019 $b
create_bonds  single/bond 2 2019 2803
  2 = max # of 1-2 neighbors
  5 = max # of special neighbors
  special bonds CPU = 0.0037589 secs
next i
jump MDPBB.in loop    # End of the loop
variable      randni equal round(random(1,${ntwall},$s))  # Pick a random "top" wall atom
variable      randni equal round(random(1,2592,$s))  
variable      randni equal round(random(1,2592,234897))  
variable      randatomi equal ${randni}                   # This is to obtain an integer number for atom-id
variable      randatomi equal 1595                   
variable      randzi equal z[${randatomi}]                # Determine the z coordinate of the chosen atom
variable      randzi equal z[1595]                
# if the chosen atom is not a surface atom then restart the loop
if            "${randzi} < $(v_wthick - 0.7)" then "jump MDPBB.in loop"
set           atom ${randatomi} type 4                    # Set this grafted wall atom as a new type
set           atom 1595 type 4                    
  1 settings made for type
group         twg id ${randatomi}                         # Add this atom to a top-wall-grafted group
group         twg id 1595                         
9 atoms in group twg
variable      twgcount equal count(twg)
print         "twg contains ${twgcount}"
twg contains 9
print         "i = $(v_i)"                                # The index i should always be equal to the number of atom in twg
i = 9
variable      x0 equal x[${randatomi}]                    # Determine its x-coord
variable      x0 equal x[1595]                    
variable      y0 equal y[${randatomi}]                    # Determine its y-coord
variable      y0 equal y[1595]                    
variable      check0 equal ${check}                       # Count the number of atoms in the simulation
variable      check0 equal 2832                       
variable      b equal ${check}+1                          # The grafted bead id will be one higher after being inserted
variable      b equal 2832+1                          
if            "${twgcount} != $(v_i)" then "jump MDPBB.in loop"
# Otherwise insert the chain directly above the chosen wall atom pointing perpendicular to the wall
create_atoms  1 single ${x0} ${y0} ${z0} mol bs 24987 units box remap yes rotate 0 0 0 1
create_atoms  1 single 3.9685026299205 ${y0} ${z0} mol bs 24987 units box remap yes rotate 0 0 0 1
create_atoms  1 single 3.9685026299205 6.3496042078728 ${z0} mol bs 24987 units box remap yes rotate 0 0 0 1
create_atoms  1 single 3.9685026299205 6.3496042078728 17 mol bs 24987 units box remap yes rotate 0 0 0 1
Created 30 atoms
  create_atoms CPU = 0.0001029 secs
variable      check1 equal ${check}               # Count the new total number of atoms
variable      check1 equal 2862               
# Check that the molecule has indeed been inserted (This check is no longer an issue).
if            "${check1} != ${check0}" then "create_bonds  single/bond 2 ${randatomi} $b" "next i"
create_bonds  single/bond 2 ${randatomi} $b
create_bonds  single/bond 2 1595 $b
create_bonds  single/bond 2 1595 2833
  2 = max # of 1-2 neighbors
  5 = max # of special neighbors
  special bonds CPU = 0.0031593 secs
next i
jump MDPBB.in loop    # End of the loop
variable      randni equal round(random(1,${ntwall},$s))  # Pick a random "top" wall atom
variable      randni equal round(random(1,2592,$s))  
variable      randni equal round(random(1,2592,234897))  
variable      randatomi equal ${randni}                   # This is to obtain an integer number for atom-id
variable      randatomi equal 1606                   
variable      randzi equal z[${randatomi}]                # Determine the z coordinate of the chosen atom
variable      randzi equal z[1606]                
# if the chosen atom is not a surface atom then restart the loop
if            "${randzi} < $(v_wthick - 0.7)" then "jump MDPBB.in loop"
jump MDPBB.in loop
variable      randni equal round(random(1,${ntwall},$s))  # Pick a random "top" wall atom
variable      randni equal round(random(1,2592,$s))  
variable      randni equal round(random(1,2592,234897))  
variable      randatomi equal ${randni}                   # This is to obtain an integer number for atom-id
variable      randatomi equal 311                   
variable      randzi equal z[${randatomi}]                # Determine the z coordinate of the chosen atom
variable      randzi equal z[311]                
# if the chosen atom is not a surface atom then restart the loop
if            "${randzi} < $(v_wthick - 0.7)" then "jump MDPBB.in loop"
jump MDPBB.in loop
variable      randni equal round(random(1,${ntwall},$s))  # Pick a random "top" wall atom
variable      randni equal round(random(1,2592,$s))  
variable      randni equal round(random(1,2592,234897))  
variable      randatomi equal ${randni}                   # This is to obtain an integer number for atom-id
variable      randatomi equal 2257                   
variable      randzi equal z[${randatomi}]                # Determine the z coordinate of the chosen atom
variable      randzi equal z[2257]                
# if the chosen atom is not a surface atom then restart the loop
if            "${randzi} < $(v_wthick - 0.7)" then "jump MDPBB.in loop"
jump MDPBB.in loop
variable      randni equal round(random(1,${ntwall},$s))  # Pick a random "top" wall atom
variable      randni equal round(random(1,2592,$s))  
variable      randni equal round(random(1,2592,234897))  
variable      randatomi equal ${randni}                   # This is to obtain an integer number for atom-id
variable      randatomi equal 1560                   
variable      randzi equal z[${randatomi}]                # Determine the z coordinate of the chosen atom
variable      randzi equal z[1560]                
# if the chosen atom is not a surface atom then restart the loop
if            "${randzi} < $(v_wthick - 0.7)" then "jump MDPBB.in loop"
set           atom ${randatomi} type 4                    # Set this grafted wall atom as a new type
set           atom 1560 type 4                    
  1 settings made for type
group         twg id ${randatomi}                         # Add this atom to a top-wall-grafted group
group         twg id 1560                         
10 atoms in group twg
variable      twgcount equal count(twg)
print         "twg contains ${twgcount}"
twg contains 10
print         "i = $(v_i)"                                # The index i should always be equal to the number of atom in twg
i = 10
variable      x0 equal x[${randatomi}]                    # Determine its x-coord
variable      x0 equal x[1560]                    
variable      y0 equal y[${randatomi}]                    # Determine its y-coord
variable      y0 equal y[1560]                    
variable      check0 equal ${check}                       # Count the number of atoms in the simulation
variable      check0 equal 2862                       
variable      b equal ${check}+1                          # The grafted bead id will be one higher after being inserted
variable      b equal 2862+1                          
if            "${twgcount} != $(v_i)" then "jump MDPBB.in loop"
# Otherwise insert the chain directly above the chosen wall atom pointing perpendicular to the wall
create_atoms  1 single ${x0} ${y0} ${z0} mol bs 24987 units box remap yes rotate 0 0 0 1
create_atoms  1 single 17.4614115716502 ${y0} ${z0} mol bs 24987 units box remap yes rotate 0 0 0 1
create_atoms  1 single 17.4614115716502 5.5559036818887 ${z0} mol bs 24987 units box remap yes rotate 0 0 0 1
create_atoms  1 single 17.4614115716502 5.5559036818887 17 mol bs 24987 units box remap yes rotate 0 0 0 1
Created 30 atoms
  create_atoms CPU = 0.0001164 secs
variable      check1 equal ${check}               # Count the new total number of atoms
variable      check1 equal 2892               
# Check that the molecule has indeed been inserted (This check is no longer an issue).
if            "${check1} != ${check0}" then "create_bonds  single/bond 2 ${randatomi} $b" "next i"
create_bonds  single/bond 2 ${randatomi} $b
create_bonds  single/bond 2 1560 $b
create_bonds  single/bond 2 1560 2863
  2 = max # of 1-2 neighbors
  5 = max # of special neighbors
  special bonds CPU = 0.0083329 secs
next i
jump MDPBB.in loop    # End of the loop
variable      randni equal round(random(1,${ntwall},$s))  # Pick a random "top" wall atom
variable      randni equal round(random(1,2592,$s))  
variable      randni equal round(random(1,2592,234897))  
variable      randatomi equal ${randni}                   # This is to obtain an integer number for atom-id
variable      randatomi equal 2382                   
variable      randzi equal z[${randatomi}]                # Determine the z coordinate of the chosen atom
variable      randzi equal z[2382]                
# if the chosen atom is not a surface atom then restart the loop
if            "${randzi} < $(v_wthick - 0.7)" then "jump MDPBB.in loop"
jump MDPBB.in loop
variable      randni equal round(random(1,${ntwall},$s))  # Pick a random "top" wall atom
variable      randni equal round(random(1,2592,$s))  
variable      randni equal round(random(1,2592,234897))  
variable      randatomi equal ${randni}                   # This is to obtain an integer number for atom-id
variable      randatomi equal 1806                   
variable      randzi equal z[${randatomi}]                # Determine the z coordinate of the chosen atom
variable      randzi equal z[1806]                
# if the chosen atom is not a surface atom then restart the loop
if            "${randzi} < $(v_wthick - 0.7)" then "jump MDPBB.in loop"
jump MDPBB.in loop
variable      randni equal round(random(1,${ntwall},$s))  # Pick a random "top" wall atom
variable      randni equal round(random(1,2592,$s))  
variable      randni equal round(random(1,2592,234897))  
variable      randatomi equal ${randni}                   # This is to obtain an integer number for atom-id
variable      randatomi equal 2327                   
variable      randzi equal z[${randatomi}]                # Determine the z coordinate of the chosen atom
variable      randzi equal z[2327]                
# if the chosen atom is not a surface atom then restart the loop
if            "${randzi} < $(v_wthick - 0.7)" then "jump MDPBB.in loop"
set           atom ${randatomi} type 4                    # Set this grafted wall atom as a new type
set           atom 2327 type 4                    
  1 settings made for type
group         twg id ${randatomi}                         # Add this atom to a top-wall-grafted group
group         twg id 2327                         
11 atoms in group twg
variable      twgcount equal count(twg)
print         "twg contains ${twgcount}"
twg contains 11
print         "i = $(v_i)"                                # The index i should always be equal to the number of atom in twg
i = 11
variable      x0 equal x[${randatomi}]                    # Determine its x-coord
variable      x0 equal x[2327]                    
variable      y0 equal y[${randatomi}]                    # Determine its y-coord
variable      y0 equal y[2327]                    
variable      check0 equal ${check}                       # Count the number of atoms in the simulation
variable      check0 equal 2892                       
variable      b equal ${check}+1                          # The grafted bead id will be one higher after being inserted
variable      b equal 2892+1                          
if            "${twgcount} != $(v_i)" then "jump MDPBB.in loop"
# Otherwise insert the chain directly above the chosen wall atom pointing perpendicular to the wall
create_atoms  1 single ${x0} ${y0} ${z0} mol bs 24987 units box remap yes rotate 0 0 0 1
create_atoms  1 single 8.7307057858251 ${y0} ${z0} mol bs 24987 units box remap yes rotate 0 0 0 1
create_atoms  1 single 8.7307057858251 22.2236147275548 ${z0} mol bs 24987 units box remap yes rotate 0 0 0 1
create_atoms  1 single 8.7307057858251 22.2236147275548 17 mol bs 24987 units box remap yes rotate 0 0 0 1
Created 30 atoms
  create_atoms CPU = 0.0001034 secs
variable      check1 equal ${check}               # Count the new total number of atoms
variable      check1 equal 2922               
# Check that the molecule has indeed been inserted (This check is no longer an issue).
if            "${check1} != ${check0}" then "create_bonds  single/bond 2 ${randatomi} $b" "next i"
create_bonds  single/bond 2 ${randatomi} $b
create_bonds  single/bond 2 2327 $b
create_bonds  single/bond 2 2327 2893
  2 = max # of 1-2 neighbors
  5 = max # of special neighbors
  special bonds CPU = 0.0074007 secs
next i
jump MDPBB.in loop    # End of the loop
variable      randni equal round(random(1,${ntwall},$s))  # Pick a random "top" wall atom
variable      randni equal round(random(1,2592,$s))  
variable      randni equal round(random(1,2592,234897))  
variable      randatomi equal ${randni}                   # This is to obtain an integer number for atom-id
variable      randatomi equal 1525                   
variable      randzi equal z[${randatomi}]                # Determine the z coordinate of the chosen atom
variable      randzi equal z[1525]                
# if the chosen atom is not a surface atom then restart the loop
if            "${randzi} < $(v_wthick - 0.7)" then "jump MDPBB.in loop"
jump MDPBB.in loop
variable      randni equal round(random(1,${ntwall},$s))  # Pick a random "top" wall atom
variable      randni equal round(random(1,2592,$s))  
variable      randni equal round(random(1,2592,234897))  
variable      randatomi equal ${randni}                   # This is to obtain an integer number for atom-id
variable      randatomi equal 2204                   
variable      randzi equal z[${randatomi}]                # Determine the z coordinate of the chosen atom
variable      randzi equal z[2204]                
# if the chosen atom is not a surface atom then restart the loop
if            "${randzi} < $(v_wthick - 0.7)" then "jump MDPBB.in loop"
set           atom ${randatomi} type 4                    # Set this grafted wall atom as a new type
set           atom 2204 type 4                    
  1 settings made for type
group         twg id ${randatomi}                         # Add this atom to a top-wall-grafted group
group         twg id 2204                         
12 atoms in group twg
variable      twgcount equal count(twg)
print         "twg contains ${twgcount}"
twg contains 12
print         "i = $(v_i)"                                # The index i should always be equal to the number of atom in twg
i = 12
variable      x0 equal x[${randatomi}]                    # Determine its x-coord
variable      x0 equal x[2204]                    
variable      y0 equal y[${randatomi}]                    # Determine its y-coord
variable      y0 equal y[2204]                    
variable      check0 equal ${check}                       # Count the number of atoms in the simulation
variable      check0 equal 2922                       
variable      b equal ${check}+1                          # The grafted bead id will be one higher after being inserted
variable      b equal 2922+1                          
if            "${twgcount} != $(v_i)" then "jump MDPBB.in loop"
# Otherwise insert the chain directly above the chosen wall atom pointing perpendicular to the wall
create_atoms  1 single ${x0} ${y0} ${z0} mol bs 24987 units box remap yes rotate 0 0 0 1
create_atoms  1 single 15.874010519682 ${y0} ${z0} mol bs 24987 units box remap yes rotate 0 0 0 1
create_atoms  1 single 15.874010519682 19.8425131496025 ${z0} mol bs 24987 units box remap yes rotate 0 0 0 1
create_atoms  1 single 15.874010519682 19.8425131496025 17 mol bs 24987 units box remap yes rotate 0 0 0 1
Created 30 atoms
  create_atoms CPU = 9.12e-05 secs
variable      check1 equal ${check}               # Count the new total number of atoms
variable      check1 equal 2952               
# Check that the molecule has indeed been inserted (This check is no longer an issue).
if            "${check1} != ${check0}" then "create_bonds  single/bond 2 ${randatomi} $b" "next i"
create_bonds  single/bond 2 ${randatomi} $b
create_bonds  single/bond 2 2204 $b
create_bonds  single/bond 2 2204 2923
  2 = max # of 1-2 neighbors
  5 = max # of special neighbors
  special bonds CPU = 0.0039641 secs
next i
jump MDPBB.in loop    # End of the loop
variable      randni equal round(random(1,${ntwall},$s))  # Pick a random "top" wall atom
variable      randni equal round(random(1,2592,$s))  
variable      randni equal round(random(1,2592,234897))  
variable      randatomi equal ${randni}                   # This is to obtain an integer number for atom-id
variable      randatomi equal 2172                   
variable      randzi equal z[${randatomi}]                # Determine the z coordinate of the chosen atom
variable      randzi equal z[2172]                
# if the chosen atom is not a surface atom then restart the loop
if            "${randzi} < $(v_wthick - 0.7)" then "jump MDPBB.in loop"
set           atom ${randatomi} type 4                    # Set this grafted wall atom as a new type
set           atom 2172 type 4                    
  1 settings made for type
group         twg id ${randatomi}                         # Add this atom to a top-wall-grafted group
group         twg id 2172                         
13 atoms in group twg
variable      twgcount equal count(twg)
print         "twg contains ${twgcount}"
twg contains 13
print         "i = $(v_i)"                                # The index i should always be equal to the number of atom in twg
i = 13
variable      x0 equal x[${randatomi}]                    # Determine its x-coord
variable      x0 equal x[2172]                    
variable      y0 equal y[${randatomi}]                    # Determine its y-coord
variable      y0 equal y[2172]                    
variable      check0 equal ${check}                       # Count the number of atoms in the simulation
variable      check0 equal 2952                       
variable      b equal ${check}+1                          # The grafted bead id will be one higher after being inserted
variable      b equal 2952+1                          
if            "${twgcount} != $(v_i)" then "jump MDPBB.in loop"
# Otherwise insert the chain directly above the chosen wall atom pointing perpendicular to the wall
create_atoms  1 single ${x0} ${y0} ${z0} mol bs 24987 units box remap yes rotate 0 0 0 1
create_atoms  1 single 3.1748021039364 ${y0} ${z0} mol bs 24987 units box remap yes rotate 0 0 0 1
create_atoms  1 single 3.1748021039364 19.8425131496025 ${z0} mol bs 24987 units box remap yes rotate 0 0 0 1
create_atoms  1 single 3.1748021039364 19.8425131496025 17 mol bs 24987 units box remap yes rotate 0 0 0 1
Created 30 atoms
  create_atoms CPU = 7.11e-05 secs
variable      check1 equal ${check}               # Count the new total number of atoms
variable      check1 equal 2982               
# Check that the molecule has indeed been inserted (This check is no longer an issue).
if            "${check1} != ${check0}" then "create_bonds  single/bond 2 ${randatomi} $b" "next i"
create_bonds  single/bond 2 ${randatomi} $b
create_bonds  single/bond 2 2172 $b
create_bonds  single/bond 2 2172 2953
  2 = max # of 1-2 neighbors
  5 = max # of special neighbors
  special bonds CPU = 0.0027949 secs
next i
jump MDPBB.in loop    # End of the loop
variable      randni equal round(random(1,${ntwall},$s))  # Pick a random "top" wall atom
variable      randni equal round(random(1,2592,$s))  
variable      randni equal round(random(1,2592,234897))  
variable      randatomi equal ${randni}                   # This is to obtain an integer number for atom-id
variable      randatomi equal 1078                   
variable      randzi equal z[${randatomi}]                # Determine the z coordinate of the chosen atom
variable      randzi equal z[1078]                
# if the chosen atom is not a surface atom then restart the loop
if            "${randzi} < $(v_wthick - 0.7)" then "jump MDPBB.in loop"
jump MDPBB.in loop
variable      randni equal round(random(1,${ntwall},$s))  # Pick a random "top" wall atom
variable      randni equal round(random(1,2592,$s))  
variable      randni equal round(random(1,2592,234897))  
variable      randatomi equal ${randni}                   # This is to obtain an integer number for atom-id
variable      randatomi equal 2588                   
variable      randzi equal z[${randatomi}]                # Determine the z coordinate of the chosen atom
variable      randzi equal z[2588]                
# if the chosen atom is not a surface atom then restart the loop
if            "${randzi} < $(v_wthick - 0.7)" then "jump MDPBB.in loop"
set           atom ${randatomi} type 4                    # Set this grafted wall atom as a new type
set           atom 2588 type 4                    
  1 settings made for type
group         twg id ${randatomi}                         # Add this atom to a top-wall-grafted group
group         twg id 2588                         
14 atoms in group twg
variable      twgcount equal count(twg)
print         "twg contains ${twgcount}"
twg contains 14
print         "i = $(v_i)"                                # The index i should always be equal to the number of atom in twg
i = 14
variable      x0 equal x[${randatomi}]                    # Determine its x-coord
variable      x0 equal x[2588]                    
variable      y0 equal y[${randatomi}]                    # Determine its y-coord
variable      y0 equal y[2588]                    
variable      check0 equal ${check}                       # Count the number of atoms in the simulation
variable      check0 equal 2982                       
variable      b equal ${check}+1                          # The grafted bead id will be one higher after being inserted
variable      b equal 2982+1                          
if            "${twgcount} != $(v_i)" then "jump MDPBB.in loop"
# Otherwise insert the chain directly above the chosen wall atom pointing perpendicular to the wall
create_atoms  1 single ${x0} ${y0} ${z0} mol bs 24987 units box remap yes rotate 0 0 0 1
create_atoms  1 single 25.3984168314912 ${y0} ${z0} mol bs 24987 units box remap yes rotate 0 0 0 1
create_atoms  1 single 25.3984168314912 27.7795184094435 ${z0} mol bs 24987 units box remap yes rotate 0 0 0 1
create_atoms  1 single 25.3984168314912 27.7795184094435 17 mol bs 24987 units box remap yes rotate 0 0 0 1
Created 30 atoms
  create_atoms CPU = 0.0001503 secs
variable      check1 equal ${check}               # Count the new total number of atoms
variable      check1 equal 3012               
# Check that the molecule has indeed been inserted (This check is no longer an issue).
if            "${check1} != ${check0}" then "create_bonds  single/bond 2 ${randatomi} $b" "next i"
create_bonds  single/bond 2 ${randatomi} $b
create_bonds  single/bond 2 2588 $b
create_bonds  single/bond 2 2588 2983
  2 = max # of 1-2 neighbors
  5 = max # of special neighbors
  special bonds CPU = 0.0090651 secs
next i
jump MDPBB.in loop    # End of the loop
variable      randni equal round(random(1,${ntwall},$s))  # Pick a random "top" wall atom
variable      randni equal round(random(1,2592,$s))  
variable      randni equal round(random(1,2592,234897))  
variable      randatomi equal ${randni}                   # This is to obtain an integer number for atom-id
variable      randatomi equal 2526                   
variable      randzi equal z[${randatomi}]                # Determine the z coordinate of the chosen atom
variable      randzi equal z[2526]                
# if the chosen atom is not a surface atom then restart the loop
if            "${randzi} < $(v_wthick - 0.7)" then "jump MDPBB.in loop"
jump MDPBB.in loop
variable      randni equal round(random(1,${ntwall},$s))  # Pick a random "top" wall atom
variable      randni equal round(random(1,2592,$s))  
variable      randni equal round(random(1,2592,234897))  
variable      randatomi equal ${randni}                   # This is to obtain an integer number for atom-id
variable      randatomi equal 1878                   
variable      randzi equal z[${randatomi}]                # Determine the z coordinate of the chosen atom
variable      randzi equal z[1878]                
# if the chosen atom is not a surface atom then restart the loop
if            "${randzi} < $(v_wthick - 0.7)" then "jump MDPBB.in loop"
jump MDPBB.in loop
variable      randni equal round(random(1,${ntwall},$s))  # Pick a random "top" wall atom
variable      randni equal round(random(1,2592,$s))  
variable      randni equal round(random(1,2592,234897))  
variable      randatomi equal ${randni}                   # This is to obtain an integer number for atom-id
variable      randatomi equal 2435                   
variable      randzi equal z[${randatomi}]                # Determine the z coordinate of the chosen atom
variable      randzi equal z[2435]                
# if the chosen atom is not a surface atom then restart the loop
if            "${randzi} < $(v_wthick - 0.7)" then "jump MDPBB.in loop"
set           atom ${randatomi} type 4                    # Set this grafted wall atom as a new type
set           atom 2435 type 4                    
  1 settings made for type
group         twg id ${randatomi}                         # Add this atom to a top-wall-grafted group
group         twg id 2435                         
15 atoms in group twg
variable      twgcount equal count(twg)
print         "twg contains ${twgcount}"
twg contains 15
print         "i = $(v_i)"                                # The index i should always be equal to the number of atom in twg
i = 15
variable      x0 equal x[${randatomi}]                    # Determine its x-coord
variable      x0 equal x[2435]                    
variable      y0 equal y[${randatomi}]                    # Determine its y-coord
variable      y0 equal y[2435]                    
variable      check0 equal ${check}                       # Count the number of atoms in the simulation
variable      check0 equal 3012                       
variable      b equal ${check}+1                          # The grafted bead id will be one higher after being inserted
variable      b equal 3012+1                          
if            "${twgcount} != $(v_i)" then "jump MDPBB.in loop"
# Otherwise insert the chain directly above the chosen wall atom pointing perpendicular to the wall
create_atoms  1 single ${x0} ${y0} ${z0} mol bs 24987 units box remap yes rotate 0 0 0 1
create_atoms  1 single 23.0173152535389 ${y0} ${z0} mol bs 24987 units box remap yes rotate 0 0 0 1
create_atoms  1 single 23.0173152535389 23.811015779523 ${z0} mol bs 24987 units box remap yes rotate 0 0 0 1
create_atoms  1 single 23.0173152535389 23.811015779523 17 mol bs 24987 units box remap yes rotate 0 0 0 1
Created 30 atoms
  create_atoms CPU = 7.37e-05 secs
variable      check1 equal ${check}               # Count the new total number of atoms
variable      check1 equal 3042               
# Check that the molecule has indeed been inserted (This check is no longer an issue).
if            "${check1} != ${check0}" then "create_bonds  single/bond 2 ${randatomi} $b" "next i"
create_bonds  single/bond 2 ${randatomi} $b
create_bonds  single/bond 2 2435 $b
create_bonds  single/bond 2 2435 3013
  2 = max # of 1-2 neighbors
  5 = max # of special neighbors
  special bonds CPU = 0.0054628 secs
next i
jump MDPBB.in loop    # End of the loop
variable      randni equal round(random(1,${ntwall},$s))  # Pick a random "top" wall atom
variable      randni equal round(random(1,2592,$s))  
variable      randni equal round(random(1,2592,234897))  
variable      randatomi equal ${randni}                   # This is to obtain an integer number for atom-id
variable      randatomi equal 612                   
variable      randzi equal z[${randatomi}]                # Determine the z coordinate of the chosen atom
variable      randzi equal z[612]                
# if the chosen atom is not a surface atom then restart the loop
if            "${randzi} < $(v_wthick - 0.7)" then "jump MDPBB.in loop"
jump MDPBB.in loop
variable      randni equal round(random(1,${ntwall},$s))  # Pick a random "top" wall atom
variable      randni equal round(random(1,2592,$s))  
variable      randni equal round(random(1,2592,234897))  
variable      randatomi equal ${randni}                   # This is to obtain an integer number for atom-id
variable      randatomi equal 2418                   
variable      randzi equal z[${randatomi}]                # Determine the z coordinate of the chosen atom
variable      randzi equal z[2418]                
# if the chosen atom is not a surface atom then restart the loop
if            "${randzi} < $(v_wthick - 0.7)" then "jump MDPBB.in loop"
jump MDPBB.in loop
variable      randni equal round(random(1,${ntwall},$s))  # Pick a random "top" wall atom
variable      randni equal round(random(1,2592,$s))  
variable      randni equal round(random(1,2592,234897))  
variable      randatomi equal ${randni}                   # This is to obtain an integer number for atom-id
variable      randatomi equal 339                   
variable      randzi equal z[${randatomi}]                # Determine the z coordinate of the chosen atom
variable      randzi equal z[339]                
# if the chosen atom is not a surface atom then restart the loop
if            "${randzi} < $(v_wthick - 0.7)" then "jump MDPBB.in loop"
jump MDPBB.in loop
variable      randni equal round(random(1,${ntwall},$s))  # Pick a random "top" wall atom
variable      randni equal round(random(1,2592,$s))  
variable      randni equal round(random(1,2592,234897))  
variable      randatomi equal ${randni}                   # This is to obtain an integer number for atom-id
variable      randatomi equal 2204                   
variable      randzi equal z[${randatomi}]                # Determine the z coordinate of the chosen atom
variable      randzi equal z[2204]                
# if the chosen atom is not a surface atom then restart the loop
if            "${randzi} < $(v_wthick - 0.7)" then "jump MDPBB.in loop"
set           atom ${randatomi} type 4                    # Set this grafted wall atom as a new type
set           atom 2204 type 4                    
  1 settings made for type
group         twg id ${randatomi}                         # Add this atom to a top-wall-grafted group
group         twg id 2204                         
15 atoms in group twg
variable      twgcount equal count(twg)
print         "twg contains ${twgcount}"
twg contains 15
print         "i = $(v_i)"                                # The index i should always be equal to the number of atom in twg
i = 16
variable      x0 equal x[${randatomi}]                    # Determine its x-coord
variable      x0 equal x[2204]                    
variable      y0 equal y[${randatomi}]                    # Determine its y-coord
variable      y0 equal y[2204]                    
variable      check0 equal ${check}                       # Count the number of atoms in the simulation
variable      check0 equal 3042                       
variable      b equal ${check}+1                          # The grafted bead id will be one higher after being inserted
variable      b equal 3042+1                          
if            "${twgcount} != $(v_i)" then "jump MDPBB.in loop"
jump MDPBB.in loop
variable      randni equal round(random(1,${ntwall},$s))  # Pick a random "top" wall atom
variable      randni equal round(random(1,2592,$s))  
variable      randni equal round(random(1,2592,234897))  
variable      randatomi equal ${randni}                   # This is to obtain an integer number for atom-id
variable      randatomi equal 2421                   
variable      randzi equal z[${randatomi}]                # Determine the z coordinate of the chosen atom
variable      randzi equal z[2421]                
# if the chosen atom is not a surface atom then restart the loop
if            "${randzi} < $(v_wthick - 0.7)" then "jump MDPBB.in loop"
jump MDPBB.in loop
variable      randni equal round(random(1,${ntwall},$s))  # Pick a random "top" wall atom
variable      randni equal round(random(1,2592,$s))  
variable      randni equal round(random(1,2592,234897))  
variable      randatomi equal ${randni}                   # This is to obtain an integer number for atom-id
variable      randatomi equal 888                   
variable      randzi equal z[${randatomi}]                # Determine the z coordinate of the chosen atom
variable      randzi equal z[888]                
# if the chosen atom is not a surface atom then restart the loop
if            "${randzi} < $(v_wthick - 0.7)" then "jump MDPBB.in loop"
jump MDPBB.in loop
variable      randni equal round(random(1,${ntwall},$s))  # Pick a random "top" wall atom
variable      randni equal round(random(1,2592,$s))  
variable      randni equal round(random(1,2592,234897))  
variable      randatomi equal ${randni}                   # This is to obtain an integer number for atom-id
variable      randatomi equal 675                   
variable      randzi equal z[${randatomi}]                # Determine the z coordinate of the chosen atom
variable      randzi equal z[675]                
# if the chosen atom is not a surface atom then restart the loop
if            "${randzi} < $(v_wthick - 0.7)" then "jump MDPBB.in loop"
jump MDPBB.in loop
variable      randni equal round(random(1,${ntwall},$s))  # Pick a random "top" wall atom
variable      randni equal round(random(1,2592,$s))  
variable      randni equal round(random(1,2592,234897))  
variable      randatomi equal ${randni}                   # This is to obtain an integer number for atom-id
variable      randatomi equal 1721                   
variable      randzi equal z[${randatomi}]                # Determine the z coordinate of the chosen atom
variable      randzi equal z[1721]                
# if the chosen atom is not a surface atom then restart the loop
if            "${randzi} < $(v_wthick - 0.7)" then "jump MDPBB.in loop"
jump MDPBB.in loop
variable      randni equal round(random(1,${ntwall},$s))  # Pick a random "top" wall atom
variable      randni equal round(random(1,2592,$s))  
variable      randni equal round(random(1,2592,234897))  
variable      randatomi equal ${randni}                   # This is to obtain an integer number for atom-id
variable      randatomi equal 1209                   
variable      randzi equal z[${randatomi}]                # Determine the z coordinate of the chosen atom
variable      randzi equal z[1209]                
# if the chosen atom is not a surface atom then restart the loop
if            "${randzi} < $(v_wthick - 0.7)" then "jump MDPBB.in loop"
jump MDPBB.in loop
variable      randni equal round(random(1,${ntwall},$s))  # Pick a random "top" wall atom
variable      randni equal round(random(1,2592,$s))  
variable      randni equal round(random(1,2592,234897))  
variable      randatomi equal ${randni}                   # This is to obtain an integer number for atom-id
variable      randatomi equal 375                   
variable      randzi equal z[${randatomi}]                # Determine the z coordinate of the chosen atom
variable      randzi equal z[375]                
# if the chosen atom is not a surface atom then restart the loop
if            "${randzi} < $(v_wthick - 0.7)" then "jump MDPBB.in loop"
jump MDPBB.in loop
variable      randni equal round(random(1,${ntwall},$s))  # Pick a random "top" wall atom
variable      randni equal round(random(1,2592,$s))  
variable      randni equal round(random(1,2592,234897))  
variable      randatomi equal ${randni}                   # This is to obtain an integer number for atom-id
variable      randatomi equal 2387                   
variable      randzi equal z[${randatomi}]                # Determine the z coordinate of the chosen atom
variable      randzi equal z[2387]                
# if the chosen atom is not a surface atom then restart the loop
if            "${randzi} < $(v_wthick - 0.7)" then "jump MDPBB.in loop"
set           atom ${randatomi} type 4                    # Set this grafted wall atom as a new type
set           atom 2387 type 4                    
  1 settings made for type
group         twg id ${randatomi}                         # Add this atom to a top-wall-grafted group
group         twg id 2387                         
16 atoms in group twg
variable      twgcount equal count(twg)
print         "twg contains ${twgcount}"
twg contains 16
print         "i = $(v_i)"                                # The index i should always be equal to the number of atom in twg
i = 16
variable      x0 equal x[${randatomi}]                    # Determine its x-coord
variable      x0 equal x[2387]                    
variable      y0 equal y[${randatomi}]                    # Determine its y-coord
variable      y0 equal y[2387]                    
variable      check0 equal ${check}                       # Count the number of atoms in the simulation
variable      check0 equal 3042                       
variable      b equal ${check}+1                          # The grafted bead id will be one higher after being inserted
variable      b equal 3042+1                          
if            "${twgcount} != $(v_i)" then "jump MDPBB.in loop"
# Otherwise insert the chain directly above the chosen wall atom pointing perpendicular to the wall
create_atoms  1 single ${x0} ${y0} ${z0} mol bs 24987 units box remap yes rotate 0 0 0 1
create_atoms  1 single 3.9685026299205 ${y0} ${z0} mol bs 24987 units box remap yes rotate 0 0 0 1
create_atoms  1 single 3.9685026299205 23.811015779523 ${z0} mol bs 24987 units box remap yes rotate 0 0 0 1
create_atoms  1 single 3.9685026299205 23.811015779523 17 mol bs 24987 units box remap yes rotate 0 0 0 1
Created 30 atoms
  create_atoms CPU = 0.000124 secs
variable      check1 equal ${check}               # Count the new total number of atoms
variable      check1 equal 3072               
# Check that the molecule has indeed been inserted (This check is no longer an issue).
if            "${check1} != ${check0}" then "create_bonds  single/bond 2 ${randatomi} $b" "next i"
create_bonds  single/bond 2 ${randatomi} $b
create_bonds  single/bond 2 2387 $b
create_bonds  single/bond 2 2387 3043
  2 = max # of 1-2 neighbors
  5 = max # of special neighbors
  special bonds CPU = 0.0035181 secs
next i
jump MDPBB.in loop    # End of the loop
variable      randni equal round(random(1,${ntwall},$s))  # Pick a random "top" wall atom
variable      randni equal round(random(1,2592,$s))  
variable      randni equal round(random(1,2592,234897))  
variable      randatomi equal ${randni}                   # This is to obtain an integer number for atom-id
variable      randatomi equal 2480                   
variable      randzi equal z[${randatomi}]                # Determine the z coordinate of the chosen atom
variable      randzi equal z[2480]                
# if the chosen atom is not a surface atom then restart the loop
if            "${randzi} < $(v_wthick - 0.7)" then "jump MDPBB.in loop"
set           atom ${randatomi} type 4                    # Set this grafted wall atom as a new type
set           atom 2480 type 4                    
  1 settings made for type
group         twg id ${randatomi}                         # Add this atom to a top-wall-grafted group
group         twg id 2480                         
17 atoms in group twg
variable      twgcount equal count(twg)
print         "twg contains ${twgcount}"
twg contains 17
print         "i = $(v_i)"                                # The index i should always be equal to the number of atom in twg
i = 17
variable      x0 equal x[${randatomi}]                    # Determine its x-coord
variable      x0 equal x[2480]                    
variable      y0 equal y[${randatomi}]                    # Determine its y-coord
variable      y0 equal y[2480]                    
variable      check0 equal ${check}                       # Count the number of atoms in the simulation
variable      check0 equal 3072                       
variable      b equal ${check}+1                          # The grafted bead id will be one higher after being inserted
variable      b equal 3072+1                          
if            "${twgcount} != $(v_i)" then "jump MDPBB.in loop"
# Otherwise insert the chain directly above the chosen wall atom pointing perpendicular to the wall
create_atoms  1 single ${x0} ${y0} ${z0} mol bs 24987 units box remap yes rotate 0 0 0 1
create_atoms  1 single 11.1118073637774 ${y0} ${z0} mol bs 24987 units box remap yes rotate 0 0 0 1
create_atoms  1 single 11.1118073637774 26.1921173574753 ${z0} mol bs 24987 units box remap yes rotate 0 0 0 1
create_atoms  1 single 11.1118073637774 26.1921173574753 17 mol bs 24987 units box remap yes rotate 0 0 0 1
Created 30 atoms
  create_atoms CPU = 0.0001182 secs
variable      check1 equal ${check}               # Count the new total number of atoms
variable      check1 equal 3102               
# Check that the molecule has indeed been inserted (This check is no longer an issue).
if            "${check1} != ${check0}" then "create_bonds  single/bond 2 ${randatomi} $b" "next i"
create_bonds  single/bond 2 ${randatomi} $b
create_bonds  single/bond 2 2480 $b
create_bonds  single/bond 2 2480 3073
  2 = max # of 1-2 neighbors
[...]
  267000     5.012938    1.2848118    3.7281262   -0.1542875   0.85663872    1.0080715   0.75165124   -1.2345679            1    1.0861257    1.6165567    1.6074381  0.034382354 0.0062145073 -0.004999141 -0.018282607     1.016657    1.0214315  0.069321775        0.075    1.5823237        5e-08 7.7024194e-10    64.914668    2.5564829         70.1 0.0055155657 -0.091375317 -0.0065822732   0.10655603    -2.204371   0.95212552 
  268000    4.9615807    1.2698156    3.6917652  -0.14960805   0.84664009   0.98043847   0.75389579   -1.2345679            1    1.0603497    1.5959777    1.5975315 -0.012460066 0.0026859103  0.013027771 -0.027383536    0.9906735   0.99742892  0.069335577        0.075    1.5920312        5e-08 7.703953e-10    64.901746    2.5437827         70.1 -0.00010963983  -0.10180656 0.0018746242   0.11731711   0.54285674   0.49796946 
  269000    4.9949139    1.3015044    3.6934096  -0.16087212   0.86776837     1.010597   0.76875767   -1.2345679            1    1.1165388    1.6399777    1.6315315  0.078107365 -0.012154778 -0.046601673  0.013954037    1.0454891    1.0516826  0.069361159        0.075     1.594608        5e-08 7.7067955e-10    64.877808    2.5569984         70.1 0.0033888265  -0.11023548 -0.010522806   0.12261119   -1.1209565    1.7806578 
  270000    4.9743196    1.2518844    3.7224352  -0.14936456   0.83468462   0.98886608   0.72778429   -1.2345679            1    1.0576765    1.5897797    1.5895275 -0.006277788 -0.0075728974  0.021534823 0.0096826782   0.99041353   0.99421483  0.069325781        0.075    1.5889723        5e-08 7.7028646e-10    64.910917    2.5404645         70.1  0.015879207  -0.12099787 -0.0086303166   0.11485411   -2.8499584   -2.6970244 
  271000    5.0190456    1.2821991    3.7368465   -0.1588052   0.85489672    1.0028337   0.75233638   -1.2345679            1    1.0024289    1.5492319    1.5502602 -0.092205373 -0.0038387464  0.024278853  0.013478458   0.93289684   0.93807089  0.069414451        0.075    1.5900932        5e-08 7.7127168e-10    64.827999    2.5683294         70.1 0.0017900653  -0.10012191 0.0078150564   0.11346213  -0.70774136  -0.55607169 
  272000    5.0122179    1.2647677    3.7474501  -0.15320938   0.84327448   0.99741058   0.73640731   -1.2345679            1    1.0727183    1.5913962    1.6051053   0.02165334  0.004234059 -0.0045030801 0.0043180929    1.0046584    1.0087083  0.069349243        0.075    1.5973576        5e-08 7.7054715e-10    64.888956    2.5565063         70.1 -0.0039844967  -0.13405262 0.0079332104   0.11477427  -0.79429519    4.3863866 
  273000    5.0311695    1.2998061    3.7313635  -0.15149604   0.86663604    1.0205177   0.75995003   -1.2345679            1    1.0959528    1.6136219    1.6269397  0.047296644 -0.0044460876 0.0051194879 -0.00077335777     1.025717    1.0304598  0.069327348        0.075    1.5939825        5e-08 7.7030387e-10     64.90945    2.5463882         70.1 -0.001628866  -0.10806175 -0.010265857    0.1161152  -0.36008714   -1.2141313 
  274000    4.9764361    1.2436052    3.7328309  -0.15895637    0.8291645    0.9636786   0.73591984   -1.2345679            1    1.0675528    1.5930078    1.5943843  0.015266473 -0.0019314113   0.02410506 -0.038900776     0.999538    1.0057076  0.069376598        0.075    1.6049618        5e-08 7.7085109e-10    64.863371    2.5652804         70.1 -0.0049285262  -0.10262988 0.0017477282   0.10184419  -0.57306302  -0.29157026 
  275000    5.0020758    1.2880908     3.713985  -0.15511892   0.85882498     1.017046    0.7491243   -1.2345679            1    1.0743232    1.6094754    1.6021864  0.011307767 -0.0020979286  0.062038277 -0.018385122     1.005088    1.0090531  0.069404234        0.075    1.6042987        5e-08 7.7115816e-10    64.837543    2.5743368         70.1 -0.0022089285  -0.10722577 0.0057327143   0.10041018   -2.0191274  -0.78474828 
  276000    4.9655572    1.2563258    3.7092314  -0.15373527   0.83764587   0.98235289   0.73732504   -1.2345679            1    1.1009995    1.6245548    1.6256324   0.05281127 -0.0099621449  0.018566235 -0.0091031741    1.0328548    1.0379558  0.069306169        0.075    1.6080141        5e-08 7.7006854e-10    64.929285    2.5277755         70.1  0.010314667  -0.12913498 -0.011760393   0.12415163   -2.2357016   0.59066351 
  277000    4.9852775     1.286228    3.6990494  -0.14839741   0.85758299    1.0065102   0.75433558   -1.2345679            1    1.0591238    1.5901697    1.5933012 -0.0060995109 0.00073905451  0.021629407 0.0072422768   0.98940694   0.99452983  0.069397212        0.075    1.5923696        5e-08 7.7108013e-10    64.844104    2.5817975         70.1  0.013128637  -0.14447073  0.011611627    0.1071374    -1.834054 -0.037804937 
  278000    5.0119537    1.2752621    3.7366916  -0.14957126   0.85027153    1.0130048   0.73743595   -1.2345679            1    1.1014352    1.6221411    1.6192417  0.062922775 0.0085637026 0.0063277135 0.0083720062    1.0332802    1.0364244  0.069359856        0.075    1.5832626        5e-08 7.7066507e-10    64.879027    2.5513297         70.1 -0.0051208881  -0.11146692 -0.0075653191    0.1137504   -1.2525129   0.90844297 
  279000    5.0120851    1.2799322    3.7321528   -0.1569624    0.8533853   0.98642996   0.76116567   -1.2345679            1    1.0573601    1.5920926     1.589945 -0.0099572367 -0.0033737162 -0.036417589 -0.0047149668   0.98701202   0.99405483  0.069337337        0.075    1.5841672        5e-08 7.7041486e-10    64.900098    2.5368883         70.1 -0.0012342331  -0.11817524 -0.0027116427   0.10286108  0.088814834   0.37352117 
  280000    4.9926972    1.2680827    3.7246145  -0.15477844   0.84548469   0.98005302   0.75220553   -1.2345679            1    1.0097996    1.5443685    1.5544096 -0.069379198 0.0051520624 -0.018386348  0.002381292   0.94027965   0.94690359  0.069354046        0.075    1.5739759        5e-08 7.7060051e-10    64.884463    2.5502378         70.1 0.0017401668  -0.09997963 -0.0022027658   0.11072493    2.1098015   -1.8214647 
  281000     4.969953    1.2442366    3.7257163  -0.15516148   0.82958554   0.96803464   0.73360855   -1.2345679            1    1.0655753    1.5963788    1.6009278 -0.00058077437 -0.0030892481   0.01794407 -0.008442458   0.99777405    1.0034505  0.069341349        0.075    1.5783629        5e-08 7.7045944e-10    64.896343    2.5412041         70.1 -0.0063221232  -0.10270076 -0.0041953416  0.093685256  0.021682391    0.2794537 
  282000     5.048028    1.2803459     3.767682  -0.15755878   0.85366112    1.0047271   0.74892781   -1.2345679            1    1.1022235    1.6118815    1.6250967  0.069692416 0.0048606106 -0.011769208 -0.034326366    1.0330065     1.037744  0.069328591        0.075    1.5789763        5e-08 7.7031768e-10    64.908286    2.5340303         70.1 -2.5648511e-06  -0.10049483  0.004490691  0.093865047 -0.093968652    1.9896208 
  283000    5.0194282    1.2882667    3.7311615   -0.1461093   0.85894224   0.99026951   0.76791622   -1.2345679            1    1.0638453    1.5971055    1.6003631 -0.0059325484 -0.00060704813  0.043419373   0.01427308   0.99287334    1.0002936  0.069319021        0.075    1.5816102        5e-08 7.7021135e-10    64.917246    2.5510385         70.1 -0.0031060292  -0.10635594 0.0078637483   0.13223227  -0.64414819  -0.70149011 
  284000    4.9784255     1.269278    3.7091475  -0.16177309   0.84628166    0.9761986    0.7562325   -1.2345679            1     1.067894     1.590244     1.605354 0.0080840722 -0.0037656651 0.0065885691 -0.033188322   0.99800185    1.0052453  0.069405386        0.075    1.5738482        5e-08 7.7117095e-10    64.836467    2.5667381         70.1  0.013574211  -0.13319379 -0.0022581599   0.10134139   -0.2170503  -0.52600688 
  285000    4.9969305    1.2795257    3.7174048  -0.15709699   0.85311426    1.0031917   0.74906728   -1.2345679            1    1.0139293    1.5498328    1.5633628 -0.071407503 -0.0064701414 0.0036081595 -0.006005242   0.94469939   0.94954834  0.069348517        0.075    1.5696122        5e-08 7.7053907e-10    64.889636    2.5440739         70.1 -0.00067814915 -0.085643489 0.0023415152   0.11437302   0.41868985   -4.0740056 
  286000    5.0120435    1.2868333    3.7252102  -0.15313307   0.85798653    1.0054104   0.75578306   -1.2345679            1    1.0201558    1.5664173    1.5650466  -0.07099633 -0.00096334602 -0.071486668 -0.024189252   0.95030521   0.95563245  0.069338451        0.075    1.5641509        5e-08 7.7042723e-10    64.899056    2.5585698         70.1 -0.0045239612  -0.10383273  -0.02121074   0.11847142   0.75939851   -1.7920639 
  287000    5.0204036     1.280426    3.7399776  -0.15802157   0.85371452    1.0028823   0.75029931   -1.2345679            1    1.0655714    1.6056208    1.5904159 0.00067746539 -0.0035717049 -0.046065542  0.013538885   0.99622757    1.0012102  0.069309787        0.075    1.5524861        5e-08 7.7010874e-10    64.925896    2.5365385         70.1 -0.0091517887  -0.11079349 -0.00092280891   0.12969317    1.1985535  -0.07476954 
  288000     4.992427    1.2694768    3.7229502   -0.1538543   0.84641422   0.99573998   0.74288789   -1.2345679            1    1.0507407      1.59165    1.5858285 -0.025256467 -0.0027069399  -0.03620937 0.0020983487   0.98208186   0.98683791  0.069321775        0.075    1.5652268        5e-08 7.7024195e-10    64.914668     2.552911         70.1  0.003649433  -0.10813192 0.0037303471  0.094809881   -1.5121431   -1.2722797 
  289000    5.0017027    1.3019176     3.699785  -0.15352941   0.86804392    1.0075173   0.77136314   -1.2345679            1    1.0692972    1.6024654     1.601684 0.0037421024 0.0072184823   0.02837164  0.020181072    0.9980066    1.0046386  0.069318259        0.075    1.5593986        5e-08 7.7020288e-10     64.91796    2.5373839         70.1 -0.0070214432  -0.10058828 0.0053510783   0.13199005    1.3909025  -0.55931574 
  290000     4.983212     1.263394     3.719818  -0.15847483   0.84235857    1.0064351   0.72858876   -1.2345679            1    1.0999856    1.6147084    1.6213362  0.063912177 -0.0056833994  0.018422052 0.0010177317    1.0326483    1.0353964  0.069371709        0.075    1.5596036        5e-08 7.7079677e-10    64.867942    2.5549099         70.1 0.00088072746  -0.12343004 -0.010308338   0.12448222   -1.0463066   0.53255215 
  291000    5.0096069    1.2766275    3.7329795  -0.16005866   0.85118188    1.0022568    0.7464419   -1.2345679            1    1.0439887    1.5748627    1.5745894 -0.017485966 -0.0036666241  0.041703436  0.029134404    0.9750014    0.9796677  0.069332105        0.075    1.5538637        5e-08 7.7035672e-10    64.904996    2.5420143         70.1 -0.0013357766  -0.13610212 -0.0035953575   0.13923251   0.37735062   0.22195824 
  292000    5.0106595    1.2637216    3.7469379  -0.15184677     0.842577   0.99170275   0.73918881   -1.2345679            1    1.1049832    1.6269168    1.6322424  0.055790468 0.00022937894  0.019029673 -0.0010224595    1.0366663    1.0413396  0.069352526        0.075    1.5528314        5e-08 7.7058362e-10    64.885885    2.5643545         70.1 0.0064886549 -0.080718728 -0.00071815901   0.10669523    1.0517421    1.4708008 
  293000    4.9957286    1.2617435    3.7339851  -0.15217433   0.84125811   0.99893932   0.73192889   -1.2345679            1    1.0745183    1.5888734    1.6054687  0.029212876 0.0044396866 -0.007591245 -0.014564447    1.0068723    1.0104102  0.069344456        0.075    1.5453055        5e-08 7.7049395e-10    64.893436    2.5523259         70.1 0.0065171397  -0.13092549  0.013186735    0.1114554    1.5135054   -1.4176569 
  294000    5.0056984    1.2823227    3.7233757  -0.15684322   0.85497916    1.0091605   0.74808281   -1.2345679            1    1.0295203    1.5715545    1.5754574 -0.058451019 0.0028500573 0.0021271093 -0.0075387447   0.96038134   0.96475624  0.069317636        0.075    1.5552882        5e-08 7.7019596e-10    64.918544    2.5553179         70.1 -0.0032126174  -0.12153527 -0.011667676   0.10603248  -0.89417394   0.59312909 
  295000    5.0023635    1.2642286    3.7381349  -0.14962505   0.84291505   0.99333236   0.73863007   -1.2345679            1    1.1011755    1.6191133    1.6181934  0.066219809 0.00070520853  0.019211683 -0.0083442205    1.0329102    1.0374272  0.069341292        0.075    1.5499144        5e-08 7.704588e-10    64.896397    2.5472555         70.1 -0.0060998338  -0.11839865 0.0038748665   0.10406377  -0.29023269 0.0078603769 
  296000    4.9745414    1.2556993    3.7188421  -0.15641606   0.83722817   0.98567735   0.73430875   -1.2345679            1    1.0922164    1.6175273    1.6175587  0.041563061 -0.0001896851 -0.050899176 -0.011630324    1.0243504    1.0289594  0.069318558        0.075    1.5582821        5e-08 7.702062e-10     64.91768     2.539936         70.1 -0.002216324  -0.10210631 -0.0047076184  0.094414063   0.15896893      2.87015 
  297000    5.0265053    1.2850676    3.7414378   -0.1458375   0.85680925    0.9994056   0.75795773   -1.2345679            1    1.0930797    1.6187494    1.6077774   0.05271235 -0.00043406726 -0.037868249  -0.01639322    1.0230281    1.0289417  0.069329505        0.075     1.564529        5e-08 7.7032784e-10     64.90743    2.5488839         70.1 -0.00082602823 -0.087628863  -0.01022321  0.085226033    0.1808504   -1.6003372 
  298000    4.9876557    1.2764756    3.7111802  -0.15425207   0.85108059   0.98958542   0.75506905   -1.2345679            1    1.0499559     1.577518    1.5939708 -0.021621097 0.0014257913 -0.031160285 0.0090038354   0.98017123   0.98644807  0.069362718        0.075    1.5585583        5e-08 7.7069687e-10     64.87635    2.5592036         70.1 -0.00031274998  -0.10540377 -0.0082917786  0.094586639  -0.58035838  -0.32035359 
  299000    4.9798779    1.2489922    3.7308857  -0.16009318   0.83275626   0.97176519   0.73639114   -1.2345679            1    1.0658588    1.5827091    1.5927466  0.022120607 0.0025449767 -0.0084094108 0.0047278722   0.99780038    1.0034946  0.069389395        0.075     1.567287        5e-08 7.7099328e-10    64.851408    2.5839122         70.1 -0.007706649 -0.081955623 0.00018520125  0.098408125    0.2936937   -2.3204447 
  300000    5.0175058    1.2916444    3.7258615  -0.16375916   0.86119428   0.99856632   0.76597129   -1.2345679            1    1.0430768    1.5826673    1.5764015 -0.029838459  0.013547527  0.028069667 -0.014281115   0.97228453   0.97899261  0.069309508        0.075    1.5830388        5e-08 7.7010565e-10    64.926157    2.5464291         70.1 0.0020541641  -0.11271243 0.0044496195   0.10342753   0.75684893   -1.5323336 
Loop time of 375.488 on 1 procs for 300000 steps with 8784 atoms

Performance: 345150.668 tau/day, 798.960 timesteps/s
99.2% CPU use with 1 MPI tasks x 1 OpenMP threads

MPI task timing breakdown:
Section |  min time  |  avg time  |  max time  |%varavg| %total
---------------------------------------------------------------
Pair    | 27.823     | 27.823     | 27.823     |   0.0 |  7.41
Bond    | 97.133     | 97.133     | 97.133     |   0.0 | 25.87
Neigh   | 100.87     | 100.87     | 100.87     |   0.0 | 26.86
Comm    | 8.3423     | 8.3423     | 8.3423     |   0.0 |  2.22
Output  | 0.60599    | 0.60599    | 0.60599    |   0.0 |  0.16
Modify  | 131.98     | 131.98     | 131.98     |   0.0 | 35.15
Other   |            | 8.735      |            |       |  2.33

Nlocal:    8784 ave 8784 max 8784 min
Histogram: 1 0 0 0 0 0 0 0 0 0
Nghost:    1926 ave 1926 max 1926 min
Histogram: 1 0 0 0 0 0 0 0 0 0
Neighs:    5815 ave 5815 max 5815 min
Histogram: 1 0 0 0 0 0 0 0 0 0

Total # of neighbors = 5815
Ave neighs/atom = 0.661999
Ave special neighs/atom = 6.72131
Neighbor list builds = 39005
Dangerous builds = 0
#undump      eq

#--- Unfix Equil ---#

unfix abeads_edz
unfix bbeads_edz
unfix tbeads_edz

unfix freeze_tout


###############
# Compression #
###############


#--- Bring the brushes closer together fit the sim box ---#

variable       bbzmax  equal bound(bbeads,zmax)
variable       tbzmin  equal bound(tbeads,zmin)
displace_atoms  alltop move 0.0 0.0 -$(v_tbzmin - v_bbzmax) units box
displace_atoms  alltop move 0.0 0.0 -39.699673844358500219 units box
variable z_f equal bound(all,zmin)
variable z_c equal bound(all,zmax)
change_box all z final ${z_f} $(v_z_c + 0.1) units box
change_box all z final 0 $(v_z_c + 0.1) units box
change_box all z final 0 30.400326155641501202 units box
  orthogonal box = (0 0 0) to (28.2843 28.2843 30.4003)

print         "D = $D"
D = 25.2264828194697
print         "D = $(v_twzmin - v_bwzmax)"
D = 25.226482819469719487
info variables

#--- Computes ---#

# Number density profiles

compute         cabeads abeads chunk/atom bin/1d z lower ${binres} units reduced # Check bound keyword to maybe only bin melt area
compute         cabeads abeads chunk/atom bin/1d z lower 0.001 units reduced 
fix             abeads_cdz abeads  ave/chunk ${Neveryc} ${Nrepeatc} ${Nfreqc} cabeads density/number file abeads_cdz
fix             abeads_cdz abeads  ave/chunk 100 ${Nrepeatc} ${Nfreqc} cabeads density/number file abeads_cdz
fix             abeads_cdz abeads  ave/chunk 100 700 ${Nfreqc} cabeads density/number file abeads_cdz
fix             abeads_cdz abeads  ave/chunk 100 700 70000 cabeads density/number file abeads_cdz
compute         cbbeads bbeads chunk/atom bin/1d z lower ${binres} units reduced # Check bound keyword to maybe only bin melt area
compute         cbbeads bbeads chunk/atom bin/1d z lower 0.001 units reduced 
fix             bbeads_cdz bbeads  ave/chunk ${Neveryc} ${Nrepeatc} ${Nfreqc} cbbeads density/number file bbeads_cdz
fix             bbeads_cdz bbeads  ave/chunk 100 ${Nrepeatc} ${Nfreqc} cbbeads density/number file bbeads_cdz
fix             bbeads_cdz bbeads  ave/chunk 100 700 ${Nfreqc} cbbeads density/number file bbeads_cdz
fix             bbeads_cdz bbeads  ave/chunk 100 700 70000 cbbeads density/number file bbeads_cdz
compute         ctbeads tbeads chunk/atom bin/1d z lower ${binres} units reduced # Check bound keyword to maybe only bin melt area
compute         ctbeads tbeads chunk/atom bin/1d z lower 0.001 units reduced 
fix             tbeads_cdz tbeads  ave/chunk ${Neveryc} ${Nrepeatc} ${Nfreqc} ctbeads density/number file tbeads_cdz
fix             tbeads_cdz tbeads  ave/chunk 100 ${Nrepeatc} ${Nfreqc} ctbeads density/number file tbeads_cdz
fix             tbeads_cdz tbeads  ave/chunk 100 700 ${Nfreqc} ctbeads density/number file tbeads_cdz
fix             tbeads_cdz tbeads  ave/chunk 100 700 70000 ctbeads density/number file tbeads_cdz



#--- Fixes ---#
fix             freeze_tout twout setforce 0.0 0.0 NULL
fix             comp_tout twout aveforce 0.0 0.0 ${Fcatom}
fix             comp_tout twout aveforce 0.0 0.0 -1.23456790123457
fix             rwalls all wall/reflect zlo EDGE zhi EDGE




#--- Dumps ---#
#dump           comp all image ${Ndump_c} stg2.*.jpg type type zoom 2 view 60 120 bond none none


#--- Run Compression ---#
timestep    ${Tstep}
timestep    0.005
run         ${Ncomp}
run         700000
WARNING: Inconsistent image flags (src/domain.cpp:784)
Per MPI rank memory allocation (min/avg/max) = 9.738 | 9.738 | 9.738 Mbytes
Step TotEng KinEng PotEng E_pair Temp c_melTemp c_wallTemp v_Fcatom v_Pcomp2 Press Pxx Pyy Pzz Pxy Pxz Pyz c_melPress c_wallPress v_melDens v_surfcov v_aveRg v_Wall_v2 v_srate v_D v_bwzmax Zhi c_fbwall[1] c_fbwall[3] c_ftwall[1] c_ftwall[3] v_sbot v_pbot 
  300000    9.3702394    1.2916444     8.078595    4.1889744   0.86119428   0.99856632   0.76597129   -1.2345679            1    8.7394852    5.8261004    11.751415    8.6409402    1.9844842   0.30898473    7.6179752    8.5762456    8.5917137   0.17838396        0.075    1.5830388        5e-08 1.982044e-09    25.226483    2.5464291    30.400326 0.0020541641  -0.11271243 0.0044496195   0.10342753   0.75684893   -1.5323336 
ERROR on proc 0: Bad FENE bond (src/MOLECULE/bond_fene.cpp:91)
Last command: run         ${Ncomp}
