9376
Atoms. Timestep: 4000000
1 7.5 3.55271e-15 10.6528
1 8.2937 29.2063 10.6528
1 8.31413 29.9313 9.8166
1 7.54509 29.1534 9.84342
1 9.0874 3.55271e-15 10.6528
1 9.8811 29.2063 10.6528
1 9.90469 29.9196 9.822
1 9.12002 29.1788 9.84741
1 10.6748 3.55271e-15 10.6528
1 11.4685 29.2063 10.6528
1 11.4775 29.9486 9.82831
1 10.7035 29.2034 9.84138
1 12.2622 3.55271e-15 10.6528
1 13.0559 29.2063 10.6528
1 13.0633 29.9156 9.8145
1 12.2717 29.1991 9.84559
1 13.8496 3.55271e-15 10.6528
1 14.6433 29.2063 10.6528
1 14.6748 29.9307 9.82623
1 13.8515 29.1888 9.85032
1 15.437 3.55271e-15 10.6528
1 16.2307 29.2063 10.6528
1 16.2511 29.9102 9.81898
1 15.4357 29.171 9.85219
1 17.0244 3.55271e-15 10.6528
1 17.8181 29.2063 10.6528
1 17.7985 29.9241 9.81325
1 17.0511 29.1382 9.85647
1 18.6118 3.55271e-15 10.6528
1 19.4055 29.2063 10.6528
1 19.4204 29.9345 9.82522
1 18.6126 29.1735 9.85324
1 20.1992 3.55271e-15 10.6528
1 20.9929 29.2063 10.6528
1 21.0032 29.9523 9.82209
1 20.2088 29.1701 9.86485
1 21.7866 3.55271e-15 10.6528
1 22.5803 29.2063 10.6528
1 22.5833 29.8953 9.84847
1 21.7813 29.1538 9.85791
1 23.374 3.55271e-15 10.6528
1 24.1677 29.2063 10.6528
1 24.1857 29.9298 9.83034
1 23.4051 29.1769 9.84402
1 24.9614 3.55271e-15 10.6528
1 25.7551 29.2063 10.6528
1 25.7242 29.9457 9.83651
1 24.944 29.1713 9.85501
1 26.5488 3.55271e-15 10.6528
1 27.3425 29.2063 10.6528
1 27.3382 29.911 9.80624
1 26.5123 29.1702 9.86641
1 28.1362 3.55271e-15 10.6528
1 28.9299 29.2063 10.6528
1 28.937 29.9462 9.80251
1 28.1393 29.172 9.85984
1 29.7236 3.55271e-15 10.6528
1 0.517315 29.2063 10.6528
1 0.515012 29.9426 9.81367
1 29.7339 29.2051 9.84257
1 1.31102 3.55271e-15 10.6528
1 2.10472 29.2063 10.6528
1 2.11081 29.9406 9.85356
1 1.29219 29.2272 9.87436
1 2.89842 3.55271e-15 10.6528
1 3.69212 29.2063 10.6528
1 3.69306 29.9171 9.82449
1 2.90454 29.1575 9.86453
1 4.48582 3.55271e-15 10.6528
1 5.27952 29.2063 10.6528
1 5.23415 29.9357 9.81689
1 4.49019 29.1777 9.84041
1 6.07322 3.55271e-15 10.6528
1 6.86692 29.2063 10.6528
1 6.80385 29.9332 9.81972
1 6.0554 29.1739 9.8528
1 7.5 28.4126 10.6528
1 8.2937 27.6189 10.6528
1 8.29652 28.4002 9.86244
1 7.56417 27.5967 9.82566
1 9.0874 28.4126 10.6528
1 9.8811 27.6189 10.6528
1 9.92093 28.4104 9.82369
1 9.11658 27.5877 9.84073
1 10.6748 28.4126 10.6528
1 11.4685 27.6189 10.6528
1 11.486 28.3778 9.86287
1 10.6813 27.5969 9.84454
1 12.2622 28.4126 10.6528
1 13.0559 27.6189 10.6528
1 13.0616 28.4152 9.84345
1 12.2674 27.57 9.84943
1 13.8496 28.4126 10.6528
1 14.6433 27.6189 10.6528
1 14.6489 28.3867 9.87401
1 13.8618 27.6105 9.83549
1 15.437 28.4126 10.6528
1 16.2307 27.6189 10.6528
1 16.2185 28.3985 9.88449
1 15.4319 27.6133 9.86788
1 17.0244 28.4126 10.6528
1 17.8181 27.6189 10.6528
1 17.8209 28.3829 9.84583
1 17.011 27.5862 9.84925
1 18.6118 28.4126 10.6528
1 19.4055 27.6189 10.6528
1 19.3835 28.3944 9.8373
1 18.6196 27.5836 9.83451
1 20.1992 28.4126 10.6528
1 20.9929 27.6189 10.6528
1 20.9878 28.3722 9.85963
1 20.199 27.5789 9.85219
1 21.7866 28.4126 10.6528
1 22.5803 27.6189 10.6528
1 22.6094 28.3955 9.8749
1 21.8039 27.6042 9.85155
1 23.374 28.4126 10.6528
1 24.1677 27.6189 10.6528
1 24.1898 28.3986 9.87245
1 23.3838 27.6059 9.86586
1 24.9614 28.4126 10.6528
1 25.7551 27.6189 10.6528
1 25.7395 28.3865 9.87349
1 24.9721 27.6107 9.86678
1 26.5488 28.4126 10.6528
1 27.3425 27.6189 10.6528
1 27.3328 28.4108 9.86373
1 26.5572 27.6247 9.86362
1 28.1362 28.4126 10.6528
1 28.9299 27.6189 10.6528
1 28.9353 28.4194 9.85104
1 28.1272 27.6308 9.88105
1 29.7236 28.4126 10.6528
1 0.517315 27.6189 10.6528
1 0.525471 28.4161 9.85223
1 29.7352 27.608 9.85508
1 1.31102 28.4126 10.6528
1 2.10472 27.6189 10.6528
1 2.11821 28.39 9.87947
1 1.296 27.6074 9.87419
1 2.89842 28.4126 10.6528
1 3.69212 27.6189 10.6528
1 3.6899 28.3801 9.86291
1 2.90884 27.6036 9.86987
1 4.48582 28.4126 10.6528
1 5.27952 27.6189 10.6528
1 5.2656 28.3959 9.85626
1 4.44732 27.5859 9.84503
1 6.07322 28.4126 10.6528
1 6.86692 27.6189 10.6528
1 6.77814 28.3845 9.81506
1 6.02795 27.6168 9.82114
1 7.5 26.8252 10.6528
1 8.2937 26.0315 10.6528
1 8.3327 26.8343 9.85881
1 7.54534 26.049 9.84125
1 9.0874 26.8252 10.6528
1 9.8811 26.0315 10.6528
1 9.89307 26.8164 9.86776
1 9.09424 26.0259 9.86702
1 10.6748 26.8252 10.6528
1 11.4685 26.0315 10.6528
1 11.4543 26.8162 9.85703
1 10.6881 26.0249 9.84889
1 12.2622 26.8252 10.6528
1 13.0559 26.0315 10.6528
1 13.0603 26.8117 9.87597
1 12.2502 26.0054 9.84656
1 13.8496 26.8252 10.6528
1 14.6433 26.0315 10.6528
1 14.638 26.8164 9.83559
1 13.835 26.0331 9.84307
1 15.437 26.8252 10.6528
1 16.2307 26.0315 10.6528
1 16.2251 26.8049 9.86776
1 15.4475 26.0241 9.86073
1 17.0244 26.8252 10.6528
1 17.8181 26.0315 10.6528
1 17.8185 26.8057 9.84576
1 17.0342 25.9996 9.85239
1 18.6118 26.8252 10.6528
1 19.4055 26.0315 10.6528
1 19.3719 26.8106 9.85317
1 18.6165 25.9895 9.85531
1 20.1992 26.8252 10.6528
1 20.9929 26.0315 10.6528
1 20.9982 26.808 9.84594
1 20.2002 26.0199 9.86587
1 21.7866 26.8252 10.6528
1 22.5803 26.0315 10.6528
1 22.577 26.8074 9.86082
1 21.7832 26.0129 9.86282
1 23.374 26.8252 10.6528
1 24.1677 26.0315 10.6528
1 24.1703 26.8361 9.84865
1 23.3956 26.0464 9.82629
1 24.9614 26.8252 10.6528
1 25.7551 26.0315 10.6528
1 25.7571 26.804 9.86149
1 24.9601 26.047 9.87051
1 26.5488 26.8252 10.6528
1 27.3425 26.0315 10.6528
1 27.3416 26.7993 9.86288
1 26.5647 26.0216 9.86051
1 28.1362 26.8252 10.6528
1 28.9299 26.0315 10.6528
1 28.9157 26.8292 9.85403
1 28.1395 26.0409 9.87213
1 29.7236 26.8252 10.6528
1 0.517315 26.0315 10.6528
1 0.505542 26.8281 9.8737
1 29.7117 26.0346 9.84332
1 1.31102 26.8252 10.6528
1 2.10472 26.0315 10.6528
1 2.08416 26.8389 9.86026
1 1.32331 26.0385 9.87439
1 2.89842 26.8252 10.6528
1 3.69212 26.0315 10.6528
1 3.66986 26.8128 9.84573
1 2.87269 26.0575 9.83822
1 4.48582 26.8252 10.6528
1 5.27952 26.0315 10.6528
1 5.2509 26.8226 9.8386
1 4.46601 26.0303 9.85979
1 6.07322 26.8252 10.6528
1 6.86692 26.0315 10.6528
1 6.78093 26.8127 9.82722
1 6.04168 26.0356 9.8537
1 7.5 25.2378 10.6528
1 8.2937 24.4441 10.6528
1 8.29613 25.2501 9.86598
1 7.57066 24.4585 9.81387
1 9.0874 25.2378 10.6528
1 9.8811 24.4441 10.6528
1 9.91537 25.2289 9.84495
1 9.08887 24.4381 9.87435
1 10.6748 25.2378 10.6528
1 11.4685 24.4441 10.6528
1 11.4635 25.2375 9.88655
1 10.6834 24.4236 9.85146
1 12.2622 25.2378 10.6528
1 13.0559 24.4441 10.6528
1 13.0724 25.2362 9.84834
1 12.2664 24.4434 9.83994
1 13.8496 25.2378 10.6528
1 14.6433 24.4441 10.6528
1 14.6325 25.2387 9.85473
1 13.8436 24.4295 9.8351
1 15.437 25.2378 10.6528
1 16.2307 24.4441 10.6528
1 16.2361 25.2261 9.85429
1 15.4288 24.4523 9.86405
1 17.0244 25.2378 10.6528
1 17.8181 24.4441 10.6528
1 17.8078 25.2127 9.84809
1 17.025 24.4273 9.85437
1 18.6118 25.2378 10.6528
1 19.4055 24.4441 10.6528
1 19.4152 25.228 9.8324
1 18.637 24.4297 9.83949
1 20.1992 25.2378 10.6528
1 20.9929 24.4441 10.6528
1 21.0005 25.2232 9.86571
1 20.2167 24.4323 9.85963
1 21.7866 25.2378 10.6528
1 22.5803 24.4441 10.6528
1 22.5916 25.2243 9.86055
1 21.767 24.4313 9.85948
1 23.374 25.2378 10.6528
1 24.1677 24.4441 10.6528
1 24.1849 25.232 9.86287
1 23.3825 24.4138 9.86859
1 24.9614 25.2378 10.6528
1 25.7551 24.4441 10.6528
1 25.7547 25.2653 9.88167
1 24.9816 24.4291 9.84909
1 26.5488 25.2378 10.6528
1 27.3425 24.4441 10.6528
1 27.3509 25.218 9.85852
1 26.5387 24.4617 9.87188
1 28.1362 25.2378 10.6528
1 28.9299 24.4441 10.6528
1 28.9197 25.2236 9.84151
1 28.1291 24.4381 9.86611
1 29.7236 25.2378 10.6528
1 0.517315 24.4441 10.6528
1 0.513103 25.2515 9.8807
1 29.7407 24.4186 9.88368
1 1.31102 25.2378 10.6528
1 2.10472 24.4441 10.6528
1 2.08216 25.2183 9.8469
1 1.31386 24.4305 9.85746
1 2.89842 25.2378 10.6528
1 3.69212 24.4441 10.6528
1 3.66052 25.268 9.87585
1 2.88888 24.4482 9.84553
1 4.48582 25.2378 10.6528
1 5.27952 24.4441 10.6528
1 5.27325 25.2297 9.84931
1 4.45443 24.4494 9.85118
1 6.07322 25.2378 10.6528
1 6.86692 24.4441 10.6528
1 6.79889 25.2561 9.8263
1 6.05002 24.4582 9.84697
1 7.5 23.6504 10.6528
1 8.2937 22.8567 10.6528
1 8.28389 23.6276 9.84733
1 7.56755 22.8364 9.84354
1 9.0874 23.6504 10.6528
1 9.8811 22.8567 10.6528
1 9.88089 23.6537 9.84458
1 9.1124 22.836 9.87698
1 10.6748 23.6504 10.6528
1 11.4685 22.8567 10.6528
1 11.4694 23.6423 9.86206
1 10.667 22.882 9.85694
1 12.2622 23.6504 10.6528
1 13.0559 22.8567 10.6528
1 13.0515 23.6475 9.84967
1 12.2826 22.865 9.84544
1 13.8496 23.6504 10.6528
1 14.6433 22.8567 10.6528
1 14.6407 23.6608 9.85591
1 13.8693 22.8545 9.86455
1 15.437 23.6504 10.6528
1 16.2307 22.8567 10.6528
1 16.2151 23.6521 9.86134
1 15.4325 22.8478 9.85673
1 17.0244 23.6504 10.6528
1 17.8181 22.8567 10.6528
1 17.8365 23.6444 9.85623
1 17.0268 22.8649 9.87015
1 18.6118 23.6504 10.6528
1 19.4055 22.8567 10.6528
1 19.4233 23.6329 9.86006
1 18.6148 22.8616 9.85122
1 20.1992 23.6504 10.6528
1 20.9929 22.8567 10.6528
1 20.9894 23.6263 9.8403
1 20.1907 22.826 9.86612
1 21.7866 23.6504 10.6528
1 22.5803 22.8567 10.6528
1 22.5647 23.6704 9.84365
1 21.7698 22.8591 9.86054
1 23.374 23.6504 10.6528
1 24.1677 22.8567 10.6528
1 24.1739 23.6308 9.84958
1 23.3709 22.8209 9.85905
1 24.9614 23.6504 10.6528
1 25.7551 22.8567 10.6528
1 25.7641 23.6688 9.85655
1 24.9723 22.8379 9.87118
1 26.5488 23.6504 10.6528
1 27.3425 22.8567 10.6528
1 27.308 23.6638 9.856
1 26.5407 22.8439 9.86889
1 28.1362 23.6504 10.6528
1 28.9299 22.8567 10.6528
1 28.9411 23.6491 9.88062
1 28.1052 22.8894 9.86255
1 29.7236 23.6504 10.6528
1 0.517315 22.8567 10.6528
1 0.545516 23.6379 9.85904
1 29.7105 22.8512 9.86226
1 1.31102 23.6504 10.6528
1 2.10472 22.8567 10.6528
1 2.10937 23.6435 9.87316
1 1.31945 22.8556 9.86937
1 2.89842 23.6504 10.6528
1 3.69212 22.8567 10.6528
1 3.66832 23.6627 9.83794
1 2.88589 22.8695 9.88315
1 4.48582 23.6504 10.6528
1 5.27952 22.8567 10.6528
1 5.25849 23.6676 9.85331
1 4.45957 22.8514 9.85658
1 6.07322 23.6504 10.6528
1 6.86692 22.8567 10.6528
1 6.80374 23.6578 9.8236
1 6.02998 22.8585 9.85238
1 7.5 22.063 10.6528
1 8.2937 21.2693 10.6528
1 8.30731 22.0531 9.86499
1 7.5765 21.2436 9.81414
1 9.0874 22.063 10.6528
1 9.8811 21.2693 10.6528
1 9.89027 22.0481 9.86495
1 9.09025 21.2551 9.84137
1 10.6748 22.063 10.6528
1 11.4685 21.2693 10.6528
1 11.4434 22.0506 9.85998
1 10.6877 21.269 9.86819
1 12.2622 22.063 10.6528
1 13.0559 21.2693 10.6528
1 13.0664 22.0664 9.8481
1 12.2774 21.259 9.86875
1 13.8496 22.063 10.6528
1 14.6433 21.2693 10.6528
1 14.6455 22.0417 9.86668
1 13.8526 21.2789 9.87968
1 15.437 22.063 10.6528
1 16.2307 21.2693 10.6528
1 16.2471 22.0554 9.8732
1 15.4512 21.2653 9.87351
1 17.0244 22.063 10.6528
1 17.8181 21.2693 10.6528
1 17.8086 22.0648 9.86166
1 17.0144 21.2669 9.85776
1 18.6118 22.063 10.6528
1 19.4055 21.2693 10.6528
1 19.4078 22.0449 9.84094
1 18.6019 21.2432 9.89685
1 20.1992 22.063 10.6528
1 20.9929 21.2693 10.6528
1 20.9899 22.0886 9.8658
1 20.209 21.2611 9.86468
1 21.7866 22.063 10.6528
1 22.5803 21.2693 10.6528
1 22.5745 22.0667 9.86731
1 21.7898 21.254 9.86587
1 23.374 22.063 10.6528
1 24.1677 21.2693 10.6528
1 24.1666 22.0777 9.85132
1 23.4088 21.276 9.87776
1 24.9614 22.063 10.6528
1 25.7551 21.2693 10.6528
1 25.757 22.0576 9.86275
1 24.9857 21.2839 9.87635
1 26.5488 22.063 10.6528
1 27.3425 21.2693 10.6528
1 27.3295 22.0633 9.85345
1 26.5562 21.2729 9.852
1 28.1362 22.063 10.6528
1 28.9299 21.2693 10.6528
1 28.9224 22.0875 9.88363
1 28.1484 21.2791 9.84743
1 29.7236 22.063 10.6528
1 0.517315 21.2693 10.6528
1 0.514993 22.0645 9.84916
1 29.7328 21.2847 9.88456
1 1.31102 22.063 10.6528
1 2.10472 21.2693 10.6528
1 2.08863 22.0764 9.84802
1 1.33369 21.2926 9.84644
1 2.89842 22.063 10.6528
1 3.69212 21.2693 10.6528
1 3.68756 22.0689 9.86188
1 2.87227 21.2922 9.82917
1 4.48582 22.063 10.6528
1 5.27952 21.2693 10.6528
1 5.25709 22.0573 9.84938
1 4.48768 21.2674 9.85268
1 6.07322 22.063 10.6528
1 6.86692 21.2693 10.6528
1 6.78606 22.0466 9.83031
1 6.05496 21.2378 9.85147
1 7.5 20.4756 10.6528
1 8.2937 19.6819 10.6528
1 8.33096 20.4917 9.85358
1 7.56824 19.6787 9.81932
1 9.0874 20.4756 10.6528
1 9.8811 19.6819 10.6528
1 9.88008 20.4858 9.85577
1 9.13168 19.6526 9.86253
1 10.6748 20.4756 10.6528
1 11.4685 19.6819 10.6528
1 11.4816 20.4744 9.87287
1 10.667 19.689 9.85051
1 12.2622 20.4756 10.6528
1 13.0559 19.6819 10.6528
1 13.0439 20.4962 9.86308
1 12.27 19.6785 9.86438
1 13.8496 20.4756 10.6528
1 14.6433 19.6819 10.6528
1 14.6702 20.4814 9.87086
1 13.8568 19.7 9.86523
1 15.437 20.4756 10.6528
1 16.2307 19.6819 10.6528
1 16.2426 20.4753 9.86418
1 15.4441 19.6691 9.83646
1 17.0244 20.4756 10.6528
1 17.8181 19.6819 10.6528
1 17.8158 20.4527 9.85953
1 17.0163 19.6945 9.8591
1 18.6118 20.4756 10.6528
1 19.4055 19.6819 10.6528
1 19.4118 20.4951 9.87022
1 18.5823 19.6769 9.88466
1 20.1992 20.4756 10.6528
1 20.9929 19.6819 10.6528
1 20.9972 20.454 9.84737
1 20.2029 19.697 9.85103
1 21.7866 20.4756 10.6528
1 22.5803 19.6819 10.6528
1 22.6124 20.4729 9.8725
1 21.7665 19.6551 9.8642
1 23.374 20.4756 10.6528
1 24.1677 19.6819 10.6528
1 24.1758 20.5172 9.87812
1 23.3781 19.6993 9.86717
1 24.9614 20.4756 10.6528
1 25.7551 19.6819 10.6528
1 25.7724 20.4879 9.88081
1 24.9368 19.7076 9.89368
1 26.5488 20.4756 10.6528
1 27.3425 19.6819 10.6528
1 27.3503 20.4724 9.87066
1 26.5503 19.6823 9.87574
1 28.1362 20.4756 10.6528
1 28.9299 19.6819 10.6528
1 28.9345 20.4848 9.8496
1 28.1392 19.7051 9.86171
1 29.7236 20.4756 10.6528
1 0.517315 19.6819 10.6528
1 0.509058 20.4966 9.85139
1 29.7126 19.6894 9.85933
1 1.31102 20.4756 10.6528
1 2.10472 19.6819 10.6528
1 2.10632 20.4772 9.85263
1 1.29475 19.6916 9.84909
1 2.89842 20.4756 10.6528
1 3.69212 19.6819 10.6528
1 3.67483 20.4846 9.87841
1 2.88174 19.668 9.8567
1 4.48582 20.4756 10.6528
1 5.27952 19.6819 10.6528
1 5.27018 20.4661 9.84825
1 4.48437 19.6779 9.841
1 6.07322 20.4756 10.6528
1 6.86692 19.6819 10.6528
1 6.81916 20.4885 9.81847
1 6.05794 19.6976 9.83212
1 7.5 18.8882 10.6528
1 8.2937 18.0945 10.6528
1 8.33073 18.8973 9.84146
1 7.55834 18.0986 9.81402
1 9.0874 18.8882 10.6528
1 9.8811 18.0945 10.6528
1 9.89378 18.8748 9.83754
1 9.091 18.0918 9.84511
1 10.6748 18.8882 10.6528
1 11.4685 18.0945 10.6528
1 11.5006 18.8908 9.84969
1 10.6918 18.0966 9.86081
1 12.2622 18.8882 10.6528
1 13.0559 18.0945 10.6528
1 13.0552 18.8838 9.86911
1 12.26 18.0851 9.87432
1 13.8496 18.8882 10.6528
1 14.6433 18.0945 10.6528
1 14.6452 18.904 9.85741
1 13.8741 18.0868 9.84733
1 15.437 18.8882 10.6528
1 16.2307 18.0945 10.6528
1 16.2271 18.9127 9.86851
1 15.4453 18.0939 9.85015
1 17.0244 18.8882 10.6528
1 17.8181 18.0945 10.6528
1 17.8026 18.881 9.86717
1 16.9898 18.1044 9.8874
1 18.6118 18.8882 10.6528
1 19.4055 18.0945 10.6528
1 19.4211 18.9282 9.86565
1 18.5882 18.1125 9.86962
1 20.1992 18.8882 10.6528
1 20.9929 18.0945 10.6528
1 21.0036 18.8745 9.85891
1 20.1866 18.0898 9.85822
1 21.7866 18.8882 10.6528
1 22.5803 18.0945 10.6528
1 22.5883 18.8835 9.87791
1 21.8019 18.0911 9.84926
1 23.374 18.8882 10.6528
1 24.1677 18.0945 10.6528
1 24.1627 18.8804 9.85751
1 23.3828 18.079 9.87298
1 24.9614 18.8882 10.6528
1 25.7551 18.0945 10.6528
1 25.7446 18.9269 9.85289
1 24.9645 18.0884 9.86139
1 26.5488 18.8882 10.6528
1 27.3425 18.0945 10.6528
1 27.3549 18.8841 9.8648
1 26.5447 18.1108 9.88856
1 28.1362 18.8882 10.6528
1 28.9299 18.0945 10.6528
1 28.9235 18.8763 9.8728
1 28.135 18.0878 9.8626
1 29.7236 18.8882 10.6528
1 0.517315 18.0945 10.6528
1 0.517712 18.8824 9.85504
1 29.7005 18.0831 9.86481
1 1.31102 18.8882 10.6528
1 2.10472 18.0945 10.6528
1 2.08838 18.8943 9.84132
1 1.27516 18.126 9.85698
1 2.89842 18.8882 10.6528
1 3.69212 18.0945 10.6528
1 3.68689 18.8839 9.87672
1 2.88192 18.119 9.84841
1 4.48582 18.8882 10.6528
1 5.27952 18.0945 10.6528
1 5.28032 18.8772 9.84217
1 4.45937 18.1044 9.8847
1 6.07322 18.8882 10.6528
1 6.86692 18.0945 10.6528
1 6.78782 18.896 9.81396
1 6.02671 18.086 9.84596
1 7.5 17.3008 10.6528
1 8.2937 16.5071 10.6528
1 8.29987 17.3141 9.86219
1 7.55718 16.502 9.81366
1 9.0874 17.3008 10.6528
1 9.8811 16.5071 10.6528
1 9.88168 17.323 9.85487
1 9.10793 16.5313 9.86077
1 10.6748 17.3008 10.6528
1 11.4685 16.5071 10.6528
1 11.4784 17.3164 9.8539
1 10.6634 16.5416 9.86829
1 12.2622 17.3008 10.6528
1 13.0559 16.5071 10.6528
1 13.0652 17.2899 9.84448
1 12.2879 16.5195 9.84492
1 13.8496 17.3008 10.6528
1 14.6433 16.5071 10.6528
1 14.6561 17.3401 9.84696
1 13.8529 16.5038 9.86569
1 15.437 17.3008 10.6528
1 16.2307 16.5071 10.6528
1 16.2273 17.2912 9.86738
1 15.4262 16.4745 9.85682
1 17.0244 17.3008 10.6528
1 17.8181 16.5071 10.6528
1 17.812 17.3043 9.87415
1 17.0181 16.4863 9.85353
1 18.6118 17.3008 10.6528
1 19.4055 16.5071 10.6528
1 19.4127 17.2937 9.87812
1 18.6177 16.4928 9.85405
1 20.1992 17.3008 10.6528
1 20.9929 16.5071 10.6528
1 21.0068 17.2928 9.87575
1 20.2168 16.493 9.84084
1 21.7866 17.3008 10.6528
1 22.5803 16.5071 10.6528
1 22.5822 17.2931 9.86067
1 21.8086 16.4946 9.87479
1 23.374 17.3008 10.6528
1 24.1677 16.5071 10.6528
1 24.1732 17.3039 9.85253
1 23.36 16.4929 9.8604
1 24.9614 17.3008 10.6528
1 25.7551 16.5071 10.6528
1 25.7573 17.2813 9.85908
1 24.9924 16.4946 9.86118
1 26.5488 17.3008 10.6528
1 27.3425 16.5071 10.6528
1 27.3479 17.2673 9.8607
1 26.535 16.5033 9.87079
1 28.1362 17.3008 10.6528
1 28.9299 16.5071 10.6528
1 28.9313 17.2859 9.84932
1 28.1194 16.5088 9.86403
1 29.7236 17.3008 10.6528
1 0.517315 16.5071 10.6528
1 0.509914 17.3202 9.88071
1 29.7083 16.512 9.86988
1 1.31102 17.3008 10.6528
1 2.10472 16.5071 10.6528
1 2.08769 17.3166 9.87739
1 1.32133 16.4954 9.84586
1 2.89842 17.3008 10.6528
1 3.69212 16.5071 10.6528
1 3.67963 17.3195 9.84978
1 2.89153 16.4917 9.85535
1 4.48582 17.3008 10.6528
1 5.27952 16.5071 10.6528
1 5.23778 17.331 9.86515
1 4.44455 16.5035 9.87235
1 6.07322 17.3008 10.6528
1 6.86692 16.5071 10.6528
1 6.80074 17.329 9.81737
1 6.03193 16.5098 9.86673
1 7.5 15.7134 10.6528
1 8.2937 14.9197 10.6528
1 8.32951 15.7336 9.84195
1 7.57191 14.8874 9.8263
1 9.0874 15.7134 10.6528
1 9.8811 14.9197 10.6528
1 9.89888 15.7068 9.85149
1 9.10627 14.922 9.85317
1 10.6748 15.7134 10.6528
1 11.4685 14.9197 10.6528
1 11.4742 15.7261 9.85005
1 10.6779 14.925 9.86906
1 12.2622 15.7134 10.6528
1 13.0559 14.9197 10.6528
1 13.0524 15.7223 9.86773
1 12.2891 14.9463 9.87287
1 13.8496 15.7134 10.6528
1 14.6433 14.9197 10.6528
1 14.6523 15.7113 9.86476
1 13.8465 14.9026 9.8538
1 15.437 15.7134 10.6528
1 16.2307 14.9197 10.6528
1 16.2327 15.6988 9.85356
1 15.4533 14.9141 9.84531
1 17.0244 15.7134 10.6528
1 17.8181 14.9197 10.6528
1 17.8399 15.6927 9.84659
1 17.0227 14.9204 9.86502
1 18.6118 15.7134 10.6528
1 19.4055 14.9197 10.6528
1 19.4244 15.7005 9.85814
1 18.6083 14.9128 9.88185
1 20.1992 15.7134 10.6528
1 20.9929 14.9197 10.6528
1 20.987 15.7064 9.84825
1 20.2014 14.9101 9.85949
1 21.7866 15.7134 10.6528
1 22.5803 14.9197 10.6528
1 22.5539 15.7253 9.87895
1 21.7638 14.9469 9.85761
1 23.374 15.7134 10.6528
1 24.1677 14.9197 10.6528
1 24.171 15.7169 9.86974
1 23.3919 14.9152 9.88242
1 24.9614 15.7134 10.6528
1 25.7551 14.9197 10.6528
1 25.7322 15.7034 9.89079
1 24.9584 14.908 9.86566
1 26.5488 15.7134 10.6528
1 27.3425 14.9197 10.6528
1 27.3483 15.7014 9.86422
1 26.5514 14.9256 9.8386
1 28.1362 15.7134 10.6528
1 28.9299 14.9197 10.6528
1 28.9234 15.7034 9.85089
1 28.1444 14.8948 9.88798
1 29.7236 15.7134 10.6528
1 0.517315 14.9197 10.6528
1 0.533865 15.7228 9.84327
1 29.7234 14.9149 9.86934
1 1.31102 15.7134 10.6528
1 2.10472 14.9197 10.6528
1 2.09259 15.7411 9.85828
1 1.29995 14.9322 9.86765
1 2.89842 15.7134 10.6528
1 3.69212 14.9197 10.6528
1 3.66811 15.699 9.86126
1 2.88241 14.9487 9.87072
1 4.48582 15.7134 10.6528
1 5.27952 14.9197 10.6528
1 5.27781 15.7449 9.86126
1 4.49779 14.9216 9.86777
1 6.07322 15.7134 10.6528
1 6.86692 14.9197 10.6528
1 6.80907 15.6849 9.81082
1 6.03042 14.9304 9.84408
1 7.5 14.126 10.6528
1 8.2937 13.3323 10.6528
1 8.34822 14.1377 9.84888
1 7.57573 13.3459 9.80598
1 9.0874 14.126 10.6528
1 9.8811 13.3323 10.6528
1 9.89027 14.1239 9.8761
1 9.1059 13.3372 9.83466
1 10.6748 14.126 10.6528
1 11.4685 13.3323 10.6528
1 11.4796 14.1396 9.87034
1 10.7155 13.3467 9.84804
1 12.2622 14.126 10.6528
1 13.0559 13.3323 10.6528
1 13.075 14.1411 9.85455
1 12.2855 13.3474 9.83334
1 13.8496 14.126 10.6528
1 14.6433 13.3323 10.6528
1 14.6221 14.1127 9.84607
1 13.8391 13.3151 9.85726
1 15.437 14.126 10.6528
1 16.2307 13.3323 10.6528
1 16.2302 14.1127 9.87417
1 15.4456 13.3286 9.86933
1 17.0244 14.126 10.6528
1 17.8181 13.3323 10.6528
1 17.8158 14.1405 9.89738
1 17.0524 13.3313 9.85915
1 18.6118 14.126 10.6528
1 19.4055 13.3323 10.6528
1 19.4119 14.1464 9.86445
1 18.5967 13.3496 9.86255
1 20.1992 14.126 10.6528
1 20.9929 13.3323 10.6528
1 20.9825 14.1214 9.87264
1 20.2052 13.322 9.87594
1 21.7866 14.126 10.6528
1 22.5803 13.3323 10.6528
1 22.5691 14.1145 9.84864
1 21.8032 13.3481 9.88497
1 23.374 14.126 10.6528
1 24.1677 13.3323 10.6528
1 24.1667 14.1121 9.87065
1 23.3808 13.3459 9.8695
1 24.9614 14.126 10.6528
1 25.7551 13.3323 10.6528
1 25.7586 14.1155 9.87221
1 24.9606 13.3271 9.85463
1 26.5488 14.126 10.6528
1 27.3425 13.3323 10.6528
1 27.3238 14.121 9.86129
1 26.5599 13.3207 9.84541
1 28.1362 14.126 10.6528
1 28.9299 13.3323 10.6528
1 28.9142 14.1242 9.87767
1 28.1201 13.3134 9.84719
1 29.7236 14.126 10.6528
1 0.517315 13.3323 10.6528
1 0.52525 14.1125 9.84597
1 29.7153 13.3424 9.86217
1 1.31102 14.126 10.6528
1 2.10472 13.3323 10.6528
1 2.09755 14.1124 9.85688
1 1.32235 13.3268 9.85163
1 2.89842 14.126 10.6528
1 3.69212 13.3323 10.6528
1 3.67384 14.1314 9.83606
1 2.91468 13.3284 9.86741
1 4.48582 14.126 10.6528
1 5.27952 13.3323 10.6528
1 5.26477 14.1062 9.84859
1 4.46401 13.3613 9.86739
1 6.07322 14.126 10.6528
1 6.86692 13.3323 10.6528
1 6.80134 14.1168 9.84226
1 6.0567 13.336 9.84825
1 7.5 12.5386 10.6528
1 8.2937 11.7449 10.6528
1 8.32002 12.5496 9.85234
1 7.56981 11.7515 9.83034
1 9.0874 12.5386 10.6528
1 9.8811 11.7449 10.6528
1 9.88198 12.5464 9.84101
1 9.07093 11.7498 9.8572
1 10.6748 12.5386 10.6528
1 11.4685 11.7449 10.6528
1 11.4971 12.5174 9.86222
1 10.6807 11.7781 9.85334
1 12.2622 12.5386 10.6528
1 13.0559 11.7449 10.6528
1 13.0705 12.5147 9.84928
1 12.2349 11.7327 9.87313
1 13.8496 12.5386 10.6528
1 14.6433 11.7449 10.6528
1 14.6659 12.5676 9.85812
1 13.8633 11.7343 9.82701
1 15.437 12.5386 10.6528
1 16.2307 11.7449 10.6528
1 16.2437 12.5352 9.85826
1 15.4427 11.7299 9.85517
1 17.0244 12.5386 10.6528
1 17.8181 11.7449 10.6528
1 17.8236 12.5241 9.85164
1 17.0235 11.7227 9.84345
1 18.6118 12.5386 10.6528
1 19.4055 11.7449 10.6528
1 19.4197 12.5599 9.84772
1 18.6078 11.7649 9.86951
1 20.1992 12.5386 10.6528
1 20.9929 11.7449 10.6528
1 20.9916 12.5431 9.84684
1 20.21 11.7162 9.87641
1 21.7866 12.5386 10.6528
1 22.5803 11.7449 10.6528
1 22.5784 12.5488 9.85727
1 21.7773 11.7543 9.86515
1 23.374 12.5386 10.6528
1 24.1677 11.7449 10.6528
1 24.1503 12.5425 9.87461
1 23.3811 11.7417 9.85823
1 24.9614 12.5386 10.6528
1 25.7551 11.7449 10.6528
1 25.7563 12.5373 9.87631
1 24.9519 11.7282 9.87848
1 26.5488 12.5386 10.6528
1 27.3425 11.7449 10.6528
1 27.3224 12.5224 9.86327
1 26.5288 11.7482 9.84049
1 28.1362 12.5386 10.6528
1 28.9299 11.7449 10.6528
1 28.9281 12.5324 9.88382
1 28.1477 11.7452 9.87624
1 29.7236 12.5386 10.6528
1 0.517315 11.7449 10.6528
1 0.513141 12.5393 9.85784
1 29.6916 11.7578 9.88234
1 1.31102 12.5386 10.6528
1 2.10472 11.7449 10.6528
1 2.09415 12.5463 9.86571
1 1.29662 11.7286 9.88805
1 2.89842 12.5386 10.6528
1 3.69212 11.7449 10.6528
1 3.68501 12.5446 9.85478
1 2.89627 11.736 9.87328
1 4.48582 12.5386 10.6528
1 5.27952 11.7449 10.6528
1 5.26292 12.5328 9.84105
1 4.49403 11.7537 9.85787
1 6.07322 12.5386 10.6528
1 6.86692 11.7449 10.6528
1 6.80386 12.5339 9.82566
1 6.04801 11.7398 9.83872
1 7.5 10.9512 10.6528
1 8.2937 10.1575 10.6528
1 8.33651 10.9687 9.86596
1 7.57658 10.1425 9.83959
1 9.0874 10.9512 10.6528
1 9.8811 10.1575 10.6528
1 9.87815 10.963 9.88387
1 9.10417 10.1466 9.83991
1 10.6748 10.9512 10.6528
1 11.4685 10.1575 10.6528
1 11.4684 10.9565 9.86107
1 10.6928 10.1405 9.87456
1 12.2622 10.9512 10.6528
1 13.0559 10.1575 10.6528
1 13.0459 10.9334 9.86662
1 12.2806 10.1706 9.87175
1 13.8496 10.9512 10.6528
1 14.6433 10.1575 10.6528
1 14.652 10.9373 9.86321
1 13.8681 10.1432 9.86213
1 15.437 10.9512 10.6528
1 16.2307 10.1575 10.6528
1 16.2377 10.9306 9.87473
1 15.4473 10.1414 9.85006
1 17.0244 10.9512 10.6528
1 17.8181 10.1575 10.6528
1 17.8189 10.9353 9.85751
1 17.0347 10.1509 9.856
1 18.6118 10.9512 10.6528
1 19.4055 10.1575 10.6528
1 19.4078 10.9556 9.86577
1 18.6266 10.1514 9.88163
1 20.1992 10.9512 10.6528
1 20.9929 10.1575 10.6528
1 20.9998 10.9504 9.84703
1 20.1944 10.178 9.87652
1 21.7866 10.9512 10.6528
1 22.5803 10.1575 10.6528
1 22.5623 10.9482 9.85282
1 21.8077 10.1552 9.8618
1 23.374 10.9512 10.6528
1 24.1677 10.1575 10.6528
1 24.1506 10.9588 9.8523
1 23.3622 10.1578 9.85807
1 24.9614 10.9512 10.6528
1 25.7551 10.1575 10.6528
1 25.7242 10.9541 9.86933
1 24.9502 10.1617 9.87547
1 26.5488 10.9512 10.6528
1 27.3425 10.1575 10.6528
1 27.3104 10.9574 9.85086
1 26.5433 10.1456 9.86042
1 28.1362 10.9512 10.6528
1 28.9299 10.1575 10.6528
1 28.934 10.9565 9.87232
1 28.1158 10.1411 9.87738
1 29.7236 10.9512 10.6528
1 0.517315 10.1575 10.6528
1 0.50812 10.9384 9.89174
1 29.7166 10.1434 9.8731
1 1.31102 10.9512 10.6528
1 2.10472 10.1575 10.6528
1 2.0924 10.9459 9.86152
1 1.29461 10.1548 9.86221
1 2.89842 10.9512 10.6528
1 3.69212 10.1575 10.6528
1 3.704 10.9478 9.87453
1 2.86419 10.1618 9.88645
1 4.48582 10.9512 10.6528
1 5.27952 10.1575 10.6528
1 5.25307 10.942 9.87013
1 4.46454 10.162 9.8586
1 6.07322 10.9512 10.6528
1 6.86692 10.1575 10.6528
1 6.83362 10.9355 9.82468
1 6.06602 10.1653 9.84646
1 7.5 9.36379 10.6528
1 8.2937 8.57009 10.6528
1 8.35585 9.36174 9.86332
1 7.57324 8.57749 9.81982
1 9.0874 9.36379 10.6528
1 9.8811 8.57009 10.6528
1 9.88887 9.3724 9.86473
1 9.121 8.57957 9.86298
1 10.6748 9.36379 10.6528
1 11.4685 8.57009 10.6528
1 11.4861 9.3659 9.88761
1 10.6993 8.57097 9.84794
1 12.2622 9.36379 10.6528
1 13.0559 8.57009 10.6528
1 13.0689 9.35058 9.88117
1 12.2693 8.5612 9.88052
1 13.8496 9.36379 10.6528
1 14.6433 8.57009 10.6528
1 14.653 9.3346 9.84807
1 13.8512 8.55223 9.86473
1 15.437 9.36379 10.6528
1 16.2307 8.57009 10.6528
1 16.2385 9.36876 9.85531
1 15.444 8.55632 9.88823
1 17.0244 9.36379 10.6528
1 17.8181 8.57009 10.6528
1 17.8409 9.37225 9.85819
1 17.0778 8.56314 9.84514
1 18.6118 9.36379 10.6528
1 19.4055 8.57009 10.6528
1 19.4152 9.34805 9.86478
1 18.6447 8.58677 9.83247
1 20.1992 9.36379 10.6528
1 20.9929 8.57009 10.6528
1 21.0103 9.36226 9.85165
1 20.2434 8.57539 9.85868
1 21.7866 9.36379 10.6528
1 22.5803 8.57009 10.6528
1 22.5849 9.38031 9.84674
1 21.796 8.57507 9.84068
1 23.374 9.36379 10.6528
1 24.1677 8.57009 10.6528
1 24.1631 9.36698 9.86295
1 23.3626 8.57427 9.85827
1 24.9614 9.36379 10.6528
1 25.7551 8.57009 10.6528
1 25.742 9.34683 9.86708
1 24.9695 8.56571 9.88557
1 26.5488 9.36379 10.6528
1 27.3425 8.57009 10.6528
1 27.3335 9.38455 9.86292
1 26.5749 8.59768 9.85522
1 28.1362 9.36379 10.6528
1 28.9299 8.57009 10.6528
1 28.9186 9.36301 9.86789
1 28.1296 8.55321 9.87439
1 29.7236 9.36379 10.6528
1 0.517315 8.57009 10.6528
1 0.511787 9.35754 9.85182
1 29.728 8.56853 9.87739
1 1.31102 9.36379 10.6528
1 2.10472 8.57009 10.6528
1 2.09769 9.36302 9.8469
1 1.30689 8.59791 9.85836
1 2.89842 9.36379 10.6528
1 3.69212 8.57009 10.6528
1 3.6605 9.38975 9.8685
1 2.89035 8.58524 9.85445
1 4.48582 9.36379 10.6528
1 5.27952 8.57009 10.6528
1 5.25154 9.36749 9.85065
1 4.47185 8.56507 9.85655
1 6.07322 9.36379 10.6528
1 6.86692 8.57009 10.6528
1 6.82779 9.35335 9.80897
1 6.04743 8.57654 9.83383
1 7.5 7.77639 10.6528
1 8.2937 6.98268 10.6528
1 8.33978 7.78941 9.84338
1 7.58506 6.9761 9.82274
1 9.0874 7.77639 10.6528
1 9.8811 6.98268 10.6528
1 9.90536 7.79387 9.89196
1 9.09773 6.98817 9.88281
1 10.6748 7.77639 10.6528
1 11.4685 6.98268 10.6528
1 11.4799 7.78541 9.86485
1 10.6745 7.0027 9.86467
1 12.2622 7.77639 10.6528
1 13.0559 6.98268 10.6528
1 13.0615 7.78319 9.84299
1 12.2749 7.00612 9.84779
1 13.8496 7.77639 10.6528
1 14.6433 6.98268 10.6528
1 14.6132 7.78427 9.86198
1 13.8262 6.96809 9.86318
1 15.437 7.77639 10.6528
1 16.2307 6.98268 10.6528
1 16.2123 7.7675 9.86758
1 15.4246 6.97196 9.8293
1 17.0244 7.77639 10.6528
1 17.8181 6.98268 10.6528
1 17.8561 7.78384 9.8593
1 17.0454 7.01318 9.86505
1 18.6118 7.77639 10.6528
1 19.4055 6.98268 10.6528
1 19.4359 7.77053 9.85633
1 18.6321 7.01166 9.855
1 20.1992 7.77639 10.6528
1 20.9929 6.98268 10.6528
1 21.0184 7.78691 9.84943
1 20.2264 7.02382 9.87463
1 21.7866 7.77639 10.6528
1 22.5803 6.98268 10.6528
1 22.5473 7.77948 9.84279
1 21.7713 6.98323 9.84348
1 23.374 7.77639 10.6528
1 24.1677 6.98268 10.6528
1 24.14 7.7658 9.85576
1 23.3635 6.95825 9.85823
1 24.9614 7.77639 10.6528
1 25.7551 6.98268 10.6528
1 25.7859 7.77261 9.81721
1 24.9797 6.97227 9.87432
1 26.5488 7.77639 10.6528
1 27.3425 6.98268 10.6528
1 27.3408 7.78374 9.85547
1 26.5802 6.97889 9.84255
1 28.1362 7.77639 10.6528
1 28.9299 6.98268 10.6528
1 28.9383 7.77845 9.87403
1 28.1353 6.97681 9.85147
1 29.7236 7.77639 10.6528
1 0.517315 6.98268 10.6528
1 0.530117 7.76985 9.86841
1 29.7226 6.97307 9.86997
1 1.31102 7.77639 10.6528
1 2.10472 6.98268 10.6528
1 2.10377 7.80612 9.87725
1 1.30483 6.98255 9.83393
1 2.89842 7.77639 10.6528
1 3.69212 6.98268 10.6528
1 3.68185 7.78424 9.86131
1 2.88674 6.97518 9.83853
1 4.48582 7.77639 10.6528
1 5.27952 6.98268 10.6528
1 5.2741 7.75483 9.84373
1 4.46344 6.98606 9.83094
1 6.07322 7.77639 10.6528
1 6.86692 6.98268 10.6528
1 6.79587 7.78149 9.8314
1 6.05757 6.97545 9.86291
1 7.5 6.18898 10.6528
1 8.2937 5.39528 10.6528
1 8.3305 6.19275 9.85561
1 7.61289 5.40064 9.84402
1 9.0874 6.18898 10.6528
1 9.8811 5.39528 10.6528
1 9.88501 6.18352 9.88117
1 9.11343 5.38745 9.84873
1 10.6748 6.18898 10.6528
1 11.4685 5.39528 10.6528
1 11.5036 6.22205 9.86636
1 10.6856 5.38002 9.84884
1 12.2622 6.18898 10.6528
1 13.0559 5.39528 10.6528
1 13.0453 6.18962 9.88674
1 12.2689 5.41072 9.87728
1 13.8496 6.18898 10.6528
1 14.6433 5.39528 10.6528
1 14.6349 6.16911 9.85092
1 13.8542 5.40814 9.85655
1 15.437 6.18898 10.6528
1 16.2307 5.39528 10.6528