9376
Atoms. Timestep: 40000
1 11.25 3.55271e-15 10.9103
1 12.0437 29.2063 10.9103
1 12.07 29.9167 10.0826
1 11.2934 29.1812 10.0876
1 12.8374 3.55271e-15 10.9103
1 13.6311 29.2063 10.9103
1 13.6421 29.9413 10.0801
1 12.8429 29.1511 10.1286
1 14.4248 3.55271e-15 10.9103
1 15.2185 29.2063 10.9103
1 15.2213 29.9385 10.0949
1 14.4217 29.172 10.1226
1 16.0122 3.55271e-15 10.9103
1 16.8059 29.2063 10.9103
1 16.8195 29.9599 10.0813
1 16.0287 29.1818 10.0962
1 17.5996 3.55271e-15 10.9103
1 18.3933 29.2063 10.9103
1 18.4003 29.9213 10.0807
1 17.5903 29.1769 10.1123
1 19.187 3.55271e-15 10.9103
1 19.9807 29.2063 10.9103
1 19.993 29.9377 10.0728
1 19.1935 29.176 10.0962
1 20.7744 3.55271e-15 10.9103
1 21.5681 29.2063 10.9103
1 21.5674 29.9416 10.0916
1 20.7736 29.1621 10.1218
1 22.3618 3.55271e-15 10.9103
1 23.1555 29.2063 10.9103
1 23.1568 29.9292 10.0879
1 22.3562 29.1651 10.1047
1 23.9492 3.55271e-15 10.9103
1 24.7429 29.2063 10.9103
1 24.7171 29.9412 10.0551
1 23.9612 29.1749 10.097
1 25.5366 3.55271e-15 10.9103
1 26.3303 29.2063 10.9103
1 26.3361 29.9306 10.0963
1 25.5158 29.1728 10.1302
1 27.124 3.55271e-15 10.9103
1 27.9177 29.2063 10.9103
1 27.9249 29.9527 10.0782
1 27.1419 29.1724 10.0854
1 28.7114 3.55271e-15 10.9103
1 29.5051 29.2063 10.9103
1 29.4822 29.9578 10.0822
1 28.6993 29.1743 10.0867
1 0.298813 3.55271e-15 10.9103
1 1.09251 29.2063 10.9103
1 1.09216 29.9217 10.0771
1 0.310736 29.1904 10.1151
1 1.88621 3.55271e-15 10.9103
1 2.67991 29.2063 10.9103
1 2.67011 29.9387 10.0906
1 1.86904 29.1775 10.1113
1 3.47361 3.55271e-15 10.9103
1 4.26732 29.2063 10.9103
1 4.24087 29.9307 10.0689
1 3.46597 29.1684 10.1023
1 5.06102 3.55271e-15 10.9103
1 5.85472 29.2063 10.9103
1 5.85264 29.9569 10.0886
1 5.06603 29.1777 10.116
1 6.64842 3.55271e-15 10.9103
1 7.44212 29.2063 10.9103
1 7.43868 29.9495 10.0599
1 6.64397 29.1739 10.1108
1 8.23582 3.55271e-15 10.9103
1 9.02952 29.2063 10.9103
1 9.03075 29.9427 10.0845
1 8.21548 29.1809 10.1425
1 9.82322 3.55271e-15 10.9103
1 10.6169 29.2063 10.9103
1 10.5348 29.9172 10.0408
1 9.7741 29.1618 10.1102
1 11.25 28.4126 10.9103
1 12.0437 27.6189 10.9103
1 12.0459 28.3855 10.0971
1 11.2883 27.6065 10.0953
1 12.8374 28.4126 10.9103
1 13.6311 27.6189 10.9103
1 13.6528 28.3887 10.1197
1 12.8146 27.6051 10.1276
1 14.4248 28.4126 10.9103
1 15.2185 27.6189 10.9103
1 15.2329 28.3804 10.1244
1 14.4589 27.599 10.1278
1 16.0122 28.4126 10.9103
1 16.8059 27.6189 10.9103
1 16.8349 28.4029 10.1016
1 16.0027 27.6041 10.1193
1 17.5996 28.4126 10.9103
1 18.3933 27.6189 10.9103
1 18.4002 28.4079 10.127
1 17.61 27.5991 10.1226
1 19.187 28.4126 10.9103
1 19.9807 27.6189 10.9103
1 20.0183 28.3842 10.1103
1 19.176 27.621 10.1134
1 20.7744 28.4126 10.9103
1 21.5681 27.6189 10.9103
1 21.555 28.3777 10.1186
1 20.7659 27.6011 10.1218
1 22.3618 28.4126 10.9103
1 23.1555 27.6189 10.9103
1 23.1569 28.4188 10.1175
1 22.3565 27.6181 10.112
1 23.9492 28.4126 10.9103
1 24.7429 27.6189 10.9103
1 24.7254 28.3889 10.1412
1 23.9596 27.6156 10.121
1 25.5366 28.4126 10.9103
1 26.3303 27.6189 10.9103
1 26.3282 28.4193 10.1198
1 25.5228 27.5986 10.1157
1 27.124 28.4126 10.9103
1 27.9177 27.6189 10.9103
1 27.8841 28.3826 10.1228
1 27.1205 27.593 10.1155
1 28.7114 28.4126 10.9103
1 29.5051 27.6189 10.9103
1 29.4998 28.3908 10.0915
1 28.713 27.6229 10.1275
1 0.298813 28.4126 10.9103
1 1.09251 27.6189 10.9103
1 1.07896 28.3927 10.1133
1 0.309903 27.5846 10.1071
1 1.88621 28.4126 10.9103
1 2.67991 27.6189 10.9103
1 2.68497 28.3853 10.1138
1 1.89288 27.6242 10.1007
1 3.47361 28.4126 10.9103
1 4.26732 27.6189 10.9103
1 4.25682 28.3556 10.1123
1 3.44402 27.5943 10.1132
1 5.06102 28.4126 10.9103
1 5.85472 27.6189 10.9103
1 5.86628 28.3882 10.1076
1 5.07073 27.6009 10.1021
1 6.64842 28.4126 10.9103
1 7.44212 27.6189 10.9103
1 7.43308 28.3845 10.1201
1 6.63076 27.6143 10.1254
1 8.23582 28.4126 10.9103
1 9.02952 27.6189 10.9103
1 8.99495 28.3958 10.102
1 8.20798 27.6338 10.092
1 9.82322 28.4126 10.9103
1 10.6169 27.6189 10.9103
1 10.53 28.3898 10.0954
1 9.79595 27.629 10.114
1 11.25 26.8252 10.9103
1 12.0437 26.0315 10.9103
1 12.0756 26.8266 10.1216
1 11.3432 25.9985 10.0794
1 12.8374 26.8252 10.9103
1 13.6311 26.0315 10.9103
1 13.6469 26.8297 10.1064
1 12.8857 26.028 10.1189
1 14.4248 26.8252 10.9103
1 15.2185 26.0315 10.9103
1 15.254 26.8202 10.124
1 14.4365 26.0419 10.1106
1 16.0122 26.8252 10.9103
1 16.8059 26.0315 10.9103
1 16.8279 26.8123 10.1155
1 16.0186 26 10.1237
1 17.5996 26.8252 10.9103
1 18.3933 26.0315 10.9103
1 18.4151 26.8029 10.1368
1 17.5768 26.0242 10.109
1 19.187 26.8252 10.9103
1 19.9807 26.0315 10.9103
1 19.9641 26.8035 10.1246
1 19.1872 26.0009 10.1119
1 20.7744 26.8252 10.9103
1 21.5681 26.0315 10.9103
1 21.5795 26.8319 10.1149
1 20.7718 26.035 10.1179
1 22.3618 26.8252 10.9103
1 23.1555 26.0315 10.9103
1 23.1341 26.8176 10.1071
1 22.3697 26.0367 10.1239
1 23.9492 26.8252 10.9103
1 24.7429 26.0315 10.9103
1 24.7113 26.8096 10.129
1 23.9325 26.0191 10.1204
1 25.5366 26.8252 10.9103
1 26.3303 26.0315 10.9103
1 26.3262 26.8237 10.1268
1 25.5204 26.0279 10.1282
1 27.124 26.8252 10.9103
1 27.9177 26.0315 10.9103
1 27.9167 26.8276 10.1262
1 27.1204 26.0216 10.1274
1 28.7114 26.8252 10.9103
1 29.5051 26.0315 10.9103
1 29.5161 26.8177 10.1048
1 28.7344 26.0232 10.1296
1 0.298813 26.8252 10.9103
1 1.09251 26.0315 10.9103
1 1.10081 26.8134 10.1084
1 0.297573 26.0312 10.102
1 1.88621 26.8252 10.9103
1 2.67991 26.0315 10.9103
1 2.68409 26.8108 10.1215
1 1.87008 26.0365 10.1279
1 3.47361 26.8252 10.9103
1 4.26732 26.0315 10.9103
1 4.26169 26.7927 10.1021
1 3.47302 26.0246 10.1128
1 5.06102 26.8252 10.9103
1 5.85472 26.0315 10.9103
1 5.86588 26.7902 10.1122
1 5.04004 26.022 10.1395
1 6.64842 26.8252 10.9103
1 7.44212 26.0315 10.9103
1 7.41801 26.8114 10.1242
1 6.6548 26.0187 10.1255
1 8.23582 26.8252 10.9103
1 9.02952 26.0315 10.9103
1 8.98164 26.8157 10.1254
1 8.23869 26.0138 10.1301
1 9.82322 26.8252 10.9103
1 10.6169 26.0315 10.9103
1 10.551 26.8056 10.0926
1 9.78539 26.0275 10.1121
1 11.25 25.2378 10.9103
1 12.0437 24.4441 10.9103
1 12.1063 25.2202 10.1333
1 11.3091 24.4528 10.0767
1 12.8374 25.2378 10.9103
1 13.6311 24.4441 10.9103
1 13.6501 25.2337 10.1023
1 12.8735 24.4366 10.1082
1 14.4248 25.2378 10.9103
1 15.2185 24.4441 10.9103
1 15.2039 25.2337 10.1138
1 14.4377 24.4367 10.109
1 16.0122 25.2378 10.9103
1 16.8059 24.4441 10.9103
1 16.8079 25.2442 10.1139
1 16.016 24.4336 10.1229
1 17.5996 25.2378 10.9103
1 18.3933 24.4441 10.9103
1 18.3724 25.2292 10.1172
1 17.5956 24.4598 10.1029
1 19.187 25.2378 10.9103
1 19.9807 24.4441 10.9103
1 19.9996 25.2264 10.1313
1 19.1899 24.4227 10.1088
1 20.7744 25.2378 10.9103
1 21.5681 24.4441 10.9103
1 21.565 25.2347 10.1241
1 20.7688 24.4358 10.1188
1 22.3618 25.2378 10.9103
1 23.1555 24.4441 10.9103
1 23.1533 25.2363 10.1008
1 22.3261 24.4528 10.1443
1 23.9492 25.2378 10.9103
1 24.7429 24.4441 10.9103
1 24.7181 25.2546 10.0969
1 23.9594 24.437 10.1258
1 25.5366 25.2378 10.9103
1 26.3303 24.4441 10.9103
1 26.3321 25.2177 10.139
1 25.5185 24.4702 10.113
1 27.124 25.2378 10.9103
1 27.9177 24.4441 10.9103
1 27.907 25.2318 10.1236
1 27.1069 24.4405 10.1128
1 28.7114 25.2378 10.9103
1 29.5051 24.4441 10.9103
1 29.5153 25.2665 10.1054
1 28.7238 24.4083 10.1227
1 0.298813 25.2378 10.9103
1 1.09251 24.4441 10.9103
1 1.09725 25.2193 10.1399
1 0.301003 24.4707 10.1431
1 1.88621 25.2378 10.9103
1 2.67991 24.4441 10.9103
1 2.69526 25.2225 10.0876
1 1.89929 24.4384 10.1309
1 3.47361 25.2378 10.9103
1 4.26732 24.4441 10.9103
1 4.30149 25.2253 10.1169
1 3.45893 24.4422 10.1173
1 5.06102 25.2378 10.9103
1 5.85472 24.4441 10.9103
1 5.84304 25.2401 10.1314
1 5.05343 24.4493 10.1128
1 6.64842 25.2378 10.9103
1 7.44212 24.4441 10.9103
1 7.4274 25.2245 10.1088
1 6.66001 24.4564 10.1273
1 8.23582 25.2378 10.9103
1 9.02952 24.4441 10.9103
1 9.00626 25.1899 10.1094
1 8.21194 24.4385 10.1202
1 9.82322 25.2378 10.9103
1 10.6169 24.4441 10.9103
1 10.5602 25.229 10.0965
1 9.79214 24.4362 10.1106
1 11.25 23.6504 10.9103
1 12.0437 22.8567 10.9103
1 12.072 23.6648 10.1179
1 11.314 22.8397 10.0901
1 12.8374 23.6504 10.9103
1 13.6311 22.8567 10.9103
1 13.6338 23.6535 10.0963
1 12.8503 22.8747 10.0994
1 14.4248 23.6504 10.9103
1 15.2185 22.8567 10.9103
1 15.2215 23.6545 10.0896
1 14.4161 22.8563 10.1109
1 16.0122 23.6504 10.9103
1 16.8059 22.8567 10.9103
1 16.7927 23.6513 10.127
1 16.0159 22.8724 10.1245
1 17.5996 23.6504 10.9103
1 18.3933 22.8567 10.9103
1 18.3669 23.657 10.1305
1 17.5848 22.8598 10.118
1 19.187 23.6504 10.9103
1 19.9807 22.8567 10.9103
1 19.9982 23.6096 10.0896
1 19.1535 22.8409 10.1352
1 20.7744 23.6504 10.9103
1 21.5681 22.8567 10.9103
1 21.544 23.6443 10.1145
1 20.7769 22.8465 10.1008
1 22.3618 23.6504 10.9103
1 23.1555 22.8567 10.9103
1 23.1471 23.6614 10.145
1 22.3363 22.8622 10.1105
1 23.9492 23.6504 10.9103
1 24.7429 22.8567 10.9103
1 24.7235 23.6602 10.1257
1 23.9746 22.8462 10.1119
1 25.5366 23.6504 10.9103
1 26.3303 22.8567 10.9103
1 26.3242 23.6434 10.0998
1 25.5408 22.8604 10.1113
1 27.124 23.6504 10.9103
1 27.9177 22.8567 10.9103
1 27.9119 23.654 10.1184
1 27.1382 22.8241 10.0996
1 28.7114 23.6504 10.9103
1 29.5051 22.8567 10.9103
1 29.5267 23.6365 10.1084
1 28.7381 22.8624 10.1282
1 0.298813 23.6504 10.9103
1 1.09251 22.8567 10.9103
1 1.08871 23.6642 10.1449
1 0.281281 22.8467 10.1058
1 1.88621 23.6504 10.9103
1 2.67991 22.8567 10.9103
1 2.67382 23.6553 10.1228
1 1.88093 22.8561 10.1198
1 3.47361 23.6504 10.9103
1 4.26732 22.8567 10.9103
1 4.27743 23.6322 10.1392
1 3.48602 22.8207 10.1224
1 5.06102 23.6504 10.9103
1 5.85472 22.8567 10.9103
1 5.86657 23.6603 10.1242
1 5.05868 22.8464 10.1164
1 6.64842 23.6504 10.9103
1 7.44212 22.8567 10.9103
1 7.41989 23.6272 10.1145
1 6.64115 22.8555 10.1164
1 8.23582 23.6504 10.9103
1 9.02952 22.8567 10.9103
1 9.00462 23.6398 10.0981
1 8.25475 22.8468 10.1206
1 9.82322 23.6504 10.9103
1 10.6169 22.8567 10.9103
1 10.5503 23.6477 10.0836
1 9.78567 22.8635 10.0961
1 11.25 22.063 10.9103
1 12.0437 21.2693 10.9103
1 12.0745 22.0607 10.0883
1 11.3194 21.2626 10.1027
1 12.8374 22.063 10.9103
1 13.6311 21.2693 10.9103
1 13.6259 22.072 10.1093
1 12.8567 21.2841 10.0902
1 14.4248 22.063 10.9103
1 15.2185 21.2693 10.9103
1 15.2174 22.0624 10.1181
1 14.4026 21.2787 10.1249
1 16.0122 22.063 10.9103
1 16.8059 21.2693 10.9103
1 16.8101 22.058 10.1206
1 16.0055 21.2693 10.0998
1 17.5996 22.063 10.9103
1 18.3933 21.2693 10.9103
1 18.3784 22.0432 10.127
1 17.5805 21.2705 10.1324
1 19.187 22.063 10.9103
1 19.9807 21.2693 10.9103
1 19.9925 22.0867 10.1502
1 19.1616 21.2598 10.1114
1 20.7744 22.063 10.9103
1 21.5681 21.2693 10.9103
1 21.5622 22.0584 10.1019
1 20.7632 21.2798 10.1422
1 22.3618 22.063 10.9103
1 23.1555 21.2693 10.9103
1 23.1625 22.0648 10.1381
1 22.353 21.2702 10.088
1 23.9492 22.063 10.9103
1 24.7429 21.2693 10.9103
1 24.763 22.0631 10.1179
1 23.9577 21.2688 10.1243
1 25.5366 22.063 10.9103
1 26.3303 21.2693 10.9103
1 26.3155 22.046 10.105
1 25.5438 21.2786 10.1071
1 27.124 22.063 10.9103
1 27.9177 21.2693 10.9103
1 27.9335 22.0543 10.1143
1 27.1131 21.2477 10.1281
1 28.7114 22.063 10.9103
1 29.5051 21.2693 10.9103
1 29.5005 22.0513 10.097
1 28.7285 21.2459 10.1003
1 0.298813 22.063 10.9103
1 1.09251 21.2693 10.9103
1 1.08404 22.0561 10.0925
1 0.303947 21.2859 10.1093
1 1.88621 22.063 10.9103
1 2.67991 21.2693 10.9103
1 2.67342 22.0796 10.1431
1 1.91083 21.265 10.1122
1 3.47361 22.063 10.9103
1 4.26732 21.2693 10.9103
1 4.28649 22.0754 10.1064
1 3.47924 21.2436 10.1122
1 5.06102 22.063 10.9103
1 5.85472 21.2693 10.9103
1 5.84222 22.0577 10.1211
1 5.08694 21.2698 10.1383
1 6.64842 22.063 10.9103
1 7.44212 21.2693 10.9103
1 7.46386 22.0638 10.1191
1 6.62856 21.2811 10.1218
1 8.23582 22.063 10.9103
1 9.02952 21.2693 10.9103
1 9.02528 22.0492 10.1096
1 8.23464 21.2554 10.1049
1 9.82322 22.063 10.9103
1 10.6169 21.2693 10.9103
1 10.5646 22.0675 10.08
1 9.79354 21.2908 10.1012
1 11.25 20.4756 10.9103
1 12.0437 19.6819 10.9103
1 12.0673 20.4776 10.0884
1 11.2763 19.6815 10.0423
1 12.8374 20.4756 10.9103
1 13.6311 19.6819 10.9103
1 13.6359 20.4864 10.1049
1 12.8849 19.6975 10.1281
1 14.4248 20.4756 10.9103
1 15.2185 19.6819 10.9103
1 15.207 20.4741 10.1327
1 14.4316 19.6989 10.1059
1 16.0122 20.4756 10.9103
1 16.8059 19.6819 10.9103
1 16.7923 20.4713 10.1386
1 16.0177 19.6666 10.103
1 17.5996 20.4756 10.9103
1 18.3933 19.6819 10.9103
1 18.3947 20.4794 10.1445
1 17.5869 19.6806 10.1236
1 19.187 20.4756 10.9103
1 19.9807 19.6819 10.9103
1 19.9753 20.4574 10.1109
1 19.1793 19.6908 10.1315
1 20.7744 20.4756 10.9103
1 21.5681 19.6819 10.9103
1 21.5859 20.447 10.0992
1 20.7705 19.6956 10.127
1 22.3618 20.4756 10.9103
1 23.1555 19.6819 10.9103
1 23.1701 20.4991 10.1423
1 22.3751 19.7003 10.104
1 23.9492 20.4756 10.9103
1 24.7429 19.6819 10.9103
1 24.7346 20.4848 10.1236
1 23.9513 19.6976 10.1191
1 25.5366 20.4756 10.9103
1 26.3303 19.6819 10.9103
1 26.3115 20.4698 10.1207
1 25.5307 19.6788 10.104
1 27.124 20.4756 10.9103
1 27.9177 19.6819 10.9103
1 27.9235 20.4829 10.1049
1 27.124 19.7016 10.1345
1 28.7114 20.4756 10.9103
1 29.5051 19.6819 10.9103
1 29.4946 20.497 10.0913
1 28.722 19.7032 10.0988
1 0.298813 20.4756 10.9103
1 1.09251 19.6819 10.9103
1 1.07095 20.4846 10.1224
1 0.319665 19.681 10.111
1 1.88621 20.4756 10.9103
1 2.67991 19.6819 10.9103
1 2.67309 20.4865 10.1191
1 1.88464 19.6542 10.1356
1 3.47361 20.4756 10.9103
1 4.26732 19.6819 10.9103
1 4.26252 20.4632 10.1242
1 3.45977 19.6839 10.114
1 5.06102 20.4756 10.9103
1 5.85472 19.6819 10.9103
1 5.8273 20.4673 10.1274
1 5.04647 19.6637 10.1236
1 6.64842 20.4756 10.9103
1 7.44212 19.6819 10.9103
1 7.43045 20.4589 10.1139
1 6.63435 19.6578 10.1284
1 8.23582 20.4756 10.9103
1 9.02952 19.6819 10.9103
1 8.99723 20.4864 10.1015
1 8.22385 19.6793 10.1178
1 9.82322 20.4756 10.9103
1 10.6169 19.6819 10.9103
1 10.5267 20.4616 10.0644
1 9.7853 19.6862 10.1057
1 11.25 18.8882 10.9103
1 12.0437 18.0945 10.9103
1 12.0604 18.9242 10.1171
1 11.3213 18.104 10.091
1 12.8374 18.8882 10.9103
1 13.6311 18.0945 10.9103
1 13.6396 18.8907 10.1209
1 12.8276 18.119 10.0985
1 14.4248 18.8882 10.9103
1 15.2185 18.0945 10.9103
1 15.2376 18.9263 10.1471
1 14.4334 18.1046 10.0931
1 16.0122 18.8882 10.9103
1 16.8059 18.0945 10.9103
1 16.8305 18.8865 10.1259
1 16.0262 18.0991 10.1226
1 17.5996 18.8882 10.9103
1 18.3933 18.0945 10.9103
1 18.3823 18.8925 10.1167
1 17.6093 18.0846 10.1024
1 19.187 18.8882 10.9103
1 19.9807 18.0945 10.9103
1 19.9846 18.8742 10.1279
1 19.1837 18.094 10.1349
1 20.7744 18.8882 10.9103
1 21.5681 18.0945 10.9103
1 21.566 18.8922 10.136
1 20.7848 18.0889 10.1194
1 22.3618 18.8882 10.9103
1 23.1555 18.0945 10.9103
1 23.1487 18.9056 10.1162
1 22.3696 18.0999 10.1378
1 23.9492 18.8882 10.9103
1 24.7429 18.0945 10.9103
1 24.7186 18.8793 10.1451
1 23.9315 18.0937 10.1257
1 25.5366 18.8882 10.9103
1 26.3303 18.0945 10.9103
1 26.328 18.8978 10.1197
1 25.5193 18.1141 10.0897
1 27.124 18.8882 10.9103
1 27.9177 18.0945 10.9103
1 27.8992 18.8885 10.1188
1 27.1131 18.1137 10.1008
1 28.7114 18.8882 10.9103
1 29.5051 18.0945 10.9103
1 29.5203 18.9068 10.1083
1 28.6938 18.0974 10.0755
1 0.298813 18.8882 10.9103
1 1.09251 18.0945 10.9103
1 1.08631 18.8806 10.118
1 0.275009 18.1159 10.124
1 1.88621 18.8882 10.9103
1 2.67991 18.0945 10.9103
1 2.67483 18.8842 10.1197
1 1.89364 18.1021 10.1138
1 3.47361 18.8882 10.9103
1 4.26732 18.0945 10.9103
1 4.27491 18.9032 10.1133
1 3.48442 18.1075 10.1296
1 5.06102 18.8882 10.9103
1 5.85472 18.0945 10.9103
1 5.84808 18.8757 10.1086
1 5.04453 18.1097 10.1097
1 6.64842 18.8882 10.9103
1 7.44212 18.0945 10.9103
1 7.45268 18.9048 10.1178
1 6.67163 18.0988 10.1154
1 8.23582 18.8882 10.9103
1 9.02952 18.0945 10.9103
1 8.99334 18.9131 10.0929
1 8.26082 18.1082 10.1186
1 9.82322 18.8882 10.9103
1 10.6169 18.0945 10.9103
1 10.5648 18.8698 10.0726
1 9.79451 18.1015 10.0994
1 11.25 17.3008 10.9103
1 12.0437 16.5071 10.9103
1 12.0855 17.2902 10.1078
1 11.3173 16.4884 10.0812
1 12.8374 17.3008 10.9103
1 13.6311 16.5071 10.9103
1 13.642 17.3001 10.1137
1 12.8643 16.5283 10.1078
1 14.4248 17.3008 10.9103
1 15.2185 16.5071 10.9103
1 15.2363 17.2968 10.1115
1 14.4372 16.511 10.1029
1 16.0122 17.3008 10.9103
1 16.8059 16.5071 10.9103
1 16.8298 17.3204 10.1115
1 16.0279 16.5024 10.1019
1 17.5996 17.3008 10.9103
1 18.3933 16.5071 10.9103
1 18.4047 17.2962 10.1214
1 17.6127 16.5085 10.119
1 19.187 17.3008 10.9103
1 19.9807 16.5071 10.9103
1 20.0007 17.2991 10.112
1 19.1978 16.4778 10.1591
1 20.7744 17.3008 10.9103
1 21.5681 16.5071 10.9103
1 21.5979 17.2845 10.1265
1 20.7661 16.4939 10.1105
1 22.3618 17.3008 10.9103
1 23.1555 16.5071 10.9103
1 23.1408 17.2853 10.1367
1 22.3432 16.483 10.1218
1 23.9492 17.3008 10.9103
1 24.7429 16.5071 10.9103
1 24.757 17.3086 10.1279
1 23.9444 16.4922 10.1166
1 25.5366 17.3008 10.9103
1 26.3303 16.5071 10.9103
1 26.3427 17.3259 10.119
1 25.5271 16.5122 10.1097
1 27.124 17.3008 10.9103
1 27.9177 16.5071 10.9103
1 27.8931 17.2971 10.1347
1 27.1397 16.5181 10.1102
1 28.7114 17.3008 10.9103
1 29.5051 16.5071 10.9103
1 29.4863 17.3057 10.1111
1 28.696 16.5251 10.1022
1 0.298813 17.3008 10.9103
1 1.09251 16.5071 10.9103
1 1.06097 17.313 10.1268
1 0.300933 16.5343 10.1232
1 1.88621 17.3008 10.9103
1 2.67991 16.5071 10.9103
1 2.68617 17.2937 10.1035
1 1.89308 16.5107 10.1191
1 3.47361 17.3008 10.9103
1 4.26732 16.5071 10.9103
1 4.27856 17.3009 10.1449
1 3.48647 16.5053 10.1078
1 5.06102 17.3008 10.9103
1 5.85472 16.5071 10.9103
1 5.84102 17.3184 10.1343
1 5.04564 16.4991 10.1186
1 6.64842 17.3008 10.9103
1 7.44212 16.5071 10.9103
1 7.43229 17.2778 10.1198
1 6.64146 16.4936 10.1048
1 8.23582 17.3008 10.9103
1 9.02952 16.5071 10.9103
1 9.01209 17.3013 10.1092
1 8.23514 16.5196 10.1131
1 9.82322 17.3008 10.9103
1 10.6169 16.5071 10.9103
1 10.548 17.3053 10.0908
1 9.80941 16.4903 10.0941
1 11.25 15.7134 10.9103
1 12.0437 14.9197 10.9103
1 12.0996 15.7187 10.1331
1 11.3169 14.9481 10.0828
1 12.8374 15.7134 10.9103
1 13.6311 14.9197 10.9103
1 13.6595 15.7335 10.1222
1 12.8703 14.9201 10.1345
1 14.4248 15.7134 10.9103
1 15.2185 14.9197 10.9103
1 15.2275 15.7106 10.1007
1 14.4288 14.9179 10.0843
1 16.0122 15.7134 10.9103
1 16.8059 14.9197 10.9103
1 16.804 15.7143 10.1219
1 16.0211 14.9451 10.098
1 17.5996 15.7134 10.9103
1 18.3933 14.9197 10.9103
1 18.3802 15.6991 10.1091
1 17.6093 14.9122 10.098
1 19.187 15.7134 10.9103
1 19.9807 14.9197 10.9103
1 19.9739 15.7158 10.1102
1 19.195 14.9225 10.131
1 20.7744 15.7134 10.9103
1 21.5681 14.9197 10.9103
1 21.5779 15.707 10.1335
1 20.7636 14.912 10.1358
1 22.3618 15.7134 10.9103
1 23.1555 14.9197 10.9103
1 23.1546 15.6904 10.1236
1 22.3694 14.8979 10.1267
1 23.9492 15.7134 10.9103
1 24.7429 14.9197 10.9103
1 24.7428 15.6975 10.1154
1 23.9481 14.9105 10.128
1 25.5366 15.7134 10.9103
1 26.3303 14.9197 10.9103
1 26.3017 15.7221 10.1114
1 25.5216 14.913 10.1129
1 27.124 15.7134 10.9103
1 27.9177 14.9197 10.9103
1 27.9235 15.6978 10.1243
1 27.1138 14.9446 10.1093
1 28.7114 15.7134 10.9103
1 29.5051 14.9197 10.9103
1 29.5407 15.7161 10.1001
1 28.7366 14.9376 10.0882
1 0.298813 15.7134 10.9103
1 1.09251 14.9197 10.9103
1 1.0935 15.728 10.1024
1 0.303693 14.9257 10.1018
1 1.88621 15.7134 10.9103
1 2.67991 14.9197 10.9103
1 2.68975 15.7007 10.1412
1 1.89508 14.9148 10.1394
1 3.47361 15.7134 10.9103
1 4.26732 14.9197 10.9103
1 4.27788 15.7184 10.1333
1 3.48852 14.9243 10.1122
1 5.06102 15.7134 10.9103
1 5.85472 14.9197 10.9103
1 5.84924 15.7118 10.1101
1 5.06135 14.924 10.1206
1 6.64842 15.7134 10.9103
1 7.44212 14.9197 10.9103
1 7.42711 15.7237 10.1151
1 6.64203 14.9295 10.1508
1 8.23582 15.7134 10.9103
1 9.02952 14.9197 10.9103
1 9.00937 15.7237 10.0905
1 8.23098 14.9123 10.1286
1 9.82322 15.7134 10.9103
1 10.6169 14.9197 10.9103
1 10.528 15.6957 10.0973
1 9.79929 14.9275 10.1286
1 11.25 14.126 10.9103
1 12.0437 13.3323 10.9103
1 12.0707 14.1381 10.0947
1 11.318 13.3316 10.0773
1 12.8374 14.126 10.9103
1 13.6311 13.3323 10.9103
1 13.6633 14.1221 10.103
1 12.834 13.3212 10.1215
1 14.4248 14.126 10.9103
1 15.2185 13.3323 10.9103
1 15.2281 14.1703 10.1155
1 14.4291 13.3222 10.1136
1 16.0122 14.126 10.9103
1 16.8059 13.3323 10.9103
1 16.8151 14.1289 10.0852
1 16.0134 13.3428 10.1349
1 17.5996 14.126 10.9103
1 18.3933 13.3323 10.9103
1 18.4173 14.1238 10.086
1 17.6215 13.3426 10.1217
1 19.187 14.126 10.9103
1 19.9807 13.3323 10.9103
1 19.9891 14.1128 10.103
1 19.2084 13.3539 10.0996
1 20.7744 14.126 10.9103
1 21.5681 13.3323 10.9103
1 21.5724 14.1348 10.1186
1 20.7625 13.3298 10.1114
1 22.3618 14.126 10.9103
1 23.1555 13.3323 10.9103
1 23.1575 14.1141 10.1328
1 22.3567 13.3441 10.1164
1 23.9492 14.126 10.9103
1 24.7429 13.3323 10.9103
1 24.7483 14.1434 10.0893
1 23.9565 13.3101 10.1066
1 25.5366 14.126 10.9103
1 26.3303 13.3323 10.9103
1 26.3367 14.1272 10.1027
1 25.5208 13.3346 10.1025
1 27.124 14.126 10.9103
1 27.9177 13.3323 10.9103
1 27.9173 14.133 10.11
1 27.106 13.3278 10.1077
1 28.7114 14.126 10.9103
1 29.5051 13.3323 10.9103
1 29.4878 14.1382 10.1111
1 28.7182 13.3169 10.1071
1 0.298813 14.126 10.9103
1 1.09251 13.3323 10.9103
1 1.09901 14.114 10.1276
1 0.28185 13.3698 10.1199
1 1.88621 14.126 10.9103
1 2.67991 13.3323 10.9103
1 2.66931 14.1277 10.1216
1 1.85965 13.3011 10.1218
1 3.47361 14.126 10.9103
1 4.26732 13.3323 10.9103
1 4.25844 14.0952 10.1029
1 3.4764 13.3256 10.125
1 5.06102 14.126 10.9103
1 5.85472 13.3323 10.9103
1 5.85673 14.1222 10.1027
1 5.04339 13.3222 10.1301
1 6.64842 14.126 10.9103
1 7.44212 13.3323 10.9103
1 7.43526 14.1039 10.1333
1 6.65956 13.3319 10.1237
1 8.23582 14.126 10.9103
1 9.02952 13.3323 10.9103
1 9.01093 14.1395 10.1072
1 8.24859 13.3446 10.1191
1 9.82322 14.126 10.9103
1 10.6169 13.3323 10.9103
1 10.5623 14.1215 10.0818
1 9.81981 13.3308 10.115
1 11.25 12.5386 10.9103
1 12.0437 11.7449 10.9103
1 12.0574 12.5172 10.1019
1 11.2959 11.7261 10.095
1 12.8374 12.5386 10.9103
1 13.6311 11.7449 10.9103
1 13.6608 12.5181 10.1106
1 12.86 11.7503 10.1062
1 14.4248 12.5386 10.9103
1 15.2185 11.7449 10.9103
1 15.2488 12.5421 10.0982
1 14.4504 11.7295 10.1387
1 16.0122 12.5386 10.9103
1 16.8059 11.7449 10.9103
1 16.8231 12.5556 10.1285
1 16.0202 11.7487 10.132
1 17.5996 12.5386 10.9103
1 18.3933 11.7449 10.9103
1 18.4149 12.5554 10.0925
1 17.5976 11.7339 10.1312
1 19.187 12.5386 10.9103
1 19.9807 11.7449 10.9103
1 19.9849 12.5578 10.119
1 19.2222 11.7571 10.1275
1 20.7744 12.5386 10.9103
1 21.5681 11.7449 10.9103
1 21.5533 12.5701 10.1097
1 20.7848 11.7623 10.1091
1 22.3618 12.5386 10.9103
1 23.1555 11.7449 10.9103
1 23.1675 12.5431 10.1163
1 22.3651 11.7661 10.1201
1 23.9492 12.5386 10.9103
1 24.7429 11.7449 10.9103
1 24.7603 12.5306 10.1126
1 23.9475 11.7556 10.1396
1 25.5366 12.5386 10.9103
1 26.3303 11.7449 10.9103
1 26.3355 12.5609 10.1182
1 25.549 11.7388 10.1288
1 27.124 12.5386 10.9103
1 27.9177 11.7449 10.9103
1 27.9464 12.5317 10.1178
1 27.1162 11.7626 10.1344
1 28.7114 12.5386 10.9103
1 29.5051 11.7449 10.9103
1 29.5177 12.555 10.1253
1 28.7308 11.7437 10.13
1 0.298813 12.5386 10.9103
1 1.09251 11.7449 10.9103
1 1.06272 12.5314 10.1234
1 0.293304 11.7412 10.1278
1 1.88621 12.5386 10.9103
1 2.67991 11.7449 10.9103
1 2.66285 12.5398 10.0909
1 1.88819 11.7191 10.0932
1 3.47361 12.5386 10.9103
1 4.26732 11.7449 10.9103
1 4.25758 12.5249 10.1176
1 3.47477 11.7384 10.1104
1 5.06102 12.5386 10.9103
1 5.85472 11.7449 10.9103
1 5.83186 12.5631 10.1232
1 5.07067 11.7354 10.1091
1 6.64842 12.5386 10.9103
1 7.44212 11.7449 10.9103
1 7.42219 12.52 10.1081
1 6.63071 11.7518 10.1023
1 8.23582 12.5386 10.9103
1 9.02952 11.7449 10.9103
1 9.0283 12.549 10.126
1 8.23546 11.7414 10.0855
1 9.82322 12.5386 10.9103
1 10.6169 11.7449 10.9103
1 10.5554 12.5356 10.0764
1 9.79085 11.704 10.1147
1 11.25 10.9512 10.9103
1 12.0437 10.1575 10.9103
1 12.0791 10.9667 10.1052
1 11.3273 10.162 10.0777
1 12.8374 10.9512 10.9103
1 13.6311 10.1575 10.9103
1 13.6295 10.962 10.1088
1 12.8669 10.1483 10.104
1 14.4248 10.9512 10.9103
1 15.2185 10.1575 10.9103
1 15.2533 10.939 10.0874
1 14.4269 10.1701 10.126
1 16.0122 10.9512 10.9103
1 16.8059 10.1575 10.9103
1 16.8056 10.9437 10.1248
1 16.0269 10.1718 10.11
1 17.5996 10.9512 10.9103
1 18.3933 10.1575 10.9103
1 18.4235 10.9495 10.124
1 17.6188 10.1703 10.116
1 19.187 10.9512 10.9103
1 19.9807 10.1575 10.9103
1 20.0253 10.9586 10.1174
1 19.2144 10.1451 10.1043
1 20.7744 10.9512 10.9103
1 21.5681 10.1575 10.9103
1 21.5871 10.95 10.1032
1 20.7887 10.1678 10.0944
1 22.3618 10.9512 10.9103
1 23.1555 10.1575 10.9103
1 23.1715 10.9324 10.1151
1 22.3623 10.1407 10.1175
1 23.9492 10.9512 10.9103
1 24.7429 10.1575 10.9103
1 24.7541 10.9509 10.0932
1 23.9589 10.1799 10.1107
1 25.5366 10.9512 10.9103
1 26.3303 10.1575 10.9103
1 26.3215 10.9472 10.0937
1 25.5385 10.1401 10.11
1 27.124 10.9512 10.9103
1 27.9177 10.1575 10.9103
1 27.9242 10.972 10.1149
1 27.1244 10.1856 10.1355
1 28.7114 10.9512 10.9103
1 29.5051 10.1575 10.9103
1 29.4933 10.9278 10.1191
1 28.7163 10.1771 10.1191
1 0.298813 10.9512 10.9103
1 1.09251 10.1575 10.9103
1 1.08182 10.9452 10.094
1 0.334759 10.1598 10.102
1 1.88621 10.9512 10.9103
1 2.67991 10.1575 10.9103
1 2.68948 10.9268 10.1184
1 1.8844 10.1495 10.1135
1 3.47361 10.9512 10.9103
1 4.26732 10.1575 10.9103
1 4.26019 10.9423 10.1117
1 3.47728 10.1514 10.1271
1 5.06102 10.9512 10.9103
1 5.85472 10.1575 10.9103
1 5.84811 10.9893 10.134
1 5.07367 10.1843 10.1089
1 6.64842 10.9512 10.9103
1 7.44212 10.1575 10.9103
1 7.43431 10.9606 10.1095
1 6.66177 10.1722 10.1305
1 8.23582 10.9512 10.9103
1 9.02952 10.1575 10.9103
1 9.01906 10.9727 10.1262
1 8.21574 10.1469 10.1177
1 9.82322 10.9512 10.9103
1 10.6169 10.1575 10.9103
1 10.565 10.9664 10.0593
1 9.80066 10.1746 10.121
1 11.25 9.36379 10.9103
1 12.0437 8.57009 10.9103
1 12.091 9.35593 10.102
1 11.3135 8.56354 10.1058
1 12.8374 9.36379 10.9103
1 13.6311 8.57009 10.9103
1 13.6525 9.35472 10.1404
1 12.8648 8.54934 10.1167
1 14.4248 9.36379 10.9103
1 15.2185 8.57009 10.9103
1 15.2192 9.35203 10.1213
1 14.4241 8.5547 10.1223
1 16.0122 9.36379 10.9103
1 16.8059 8.57009 10.9103
1 16.7972 9.36772 10.1221
1 16.027 8.57265 10.1197
1 17.5996 9.36379 10.9103
1 18.3933 8.57009 10.9103
1 18.3802 9.34656 10.121
1 17.6018 8.59048 10.1262
1 19.187 9.36379 10.9103
1 19.9807 8.57009 10.9103
1 19.9955 9.38253 10.1449
1 19.2212 8.58846 10.1163
1 20.7744 9.36379 10.9103
1 21.5681 8.57009 10.9103
1 21.5785 9.35785 10.1352
1 20.7621 8.55953 10.1234
1 22.3618 9.36379 10.9103
1 23.1555 8.57009 10.9103
1 23.1857 9.35154 10.1082
1 22.3854 8.58181 10.1042
1 23.9492 9.36379 10.9103
1 24.7429 8.57009 10.9103
1 24.7357 9.36569 10.1291
1 23.9299 8.56449 10.1151
1 25.5366 9.36379 10.9103
1 26.3303 8.57009 10.9103
1 26.3418 9.38683 10.1398
1 25.5513 8.5705 10.1314
1 27.124 9.36379 10.9103
1 27.9177 8.57009 10.9103
1 27.9151 9.35942 10.1283
1 27.105 8.54695 10.1241
1 28.7114 9.36379 10.9103
1 29.5051 8.57009 10.9103
1 29.5204 9.37568 10.1322
1 28.7185 8.57632 10.1092
1 0.298813 9.36379 10.9103
1 1.09251 8.57009 10.9103
1 1.07276 9.36918 10.0809
1 0.298387 8.57098 10.1153
1 1.88621 9.36379 10.9103
1 2.67991 8.57009 10.9103
1 2.64866 9.3753 10.1189
1 1.86623 8.5805 10.1447
1 3.47361 9.36379 10.9103
1 4.26732 8.57009 10.9103
1 4.26802 9.35848 10.1215
1 3.46238 8.58893 10.1043
1 5.06102 9.36379 10.9103
1 5.85472 8.57009 10.9103
1 5.86515 9.3612 10.119
1 5.06039 8.5736 10.1081
1 6.64842 9.36379 10.9103
1 7.44212 8.57009 10.9103
1 7.42238 9.36372 10.1519
1 6.64527 8.56255 10.1192
1 8.23582 9.36379 10.9103
1 9.02952 8.57009 10.9103
1 8.97288 9.34539 10.1343
1 8.22796 8.56774 10.1197
1 9.82322 9.36379 10.9103
1 10.6169 8.57009 10.9103
1 10.5724 9.37759 10.1036
1 9.81696 8.5778 10.109
1 11.25 7.77639 10.9103
1 12.0437 6.98268 10.9103
1 12.0938 7.77355 10.1023
1 11.3288 6.99619 10.0966
1 12.8374 7.77639 10.9103
1 13.6311 6.98268 10.9103
1 13.6625 7.799 10.1102
1 12.8677 7.01513 10.1077
1 14.4248 7.77639 10.9103
1 15.2185 6.98268 10.9103
1 15.251 7.79717 10.1363
1 14.4389 7.01037 10.1072
1 16.0122 7.77639 10.9103
1 16.8059 6.98268 10.9103
1 16.838 7.77469 10.1151
1 16.041 6.99758 10.119
1 17.5996 7.77639 10.9103
1 18.3933 6.98268 10.9103
1 18.3793 7.80251 10.1076
1 17.6009 6.98199 10.1366
1 19.187 7.77639 10.9103
1 19.9807 6.98268 10.9103
1 19.9862 7.80002 10.1136
1 19.1891 7.00597 10.1386
1 20.7744 7.77639 10.9103
1 21.5681 6.98268 10.9103
1 21.5742 7.78572 10.145
1 20.7961 6.98604 10.1355
1 22.3618 7.77639 10.9103
1 23.1555 6.98268 10.9103
1 23.1506 7.79499 10.1071
1 22.3916 6.97457 10.1095
1 23.9492 7.77639 10.9103
1 24.7429 6.98268 10.9103
1 24.7298 7.787 10.1194
1 23.922 6.98856 10.1062
1 25.5366 7.77639 10.9103
1 26.3303 6.98268 10.9103
1 26.3215 7.77754 10.1312
1 25.5287 6.97628 10.1257
1 27.124 7.77639 10.9103
1 27.9177 6.98268 10.9103
1 27.9271 7.76176 10.1064
1 27.0988 6.99098 10.1323
1 28.7114 7.77639 10.9103
1 29.5051 6.98268 10.9103
1 29.5216 7.79313 10.1161
1 28.6907 6.99053 10.1446
1 0.298813 7.77639 10.9103
1 1.09251 6.98268 10.9103
1 1.07893 7.76793 10.1311
1 0.259815 6.97569 10.1136
1 1.88621 7.77639 10.9103
1 2.67991 6.98268 10.9103
1 2.70848 7.77372 10.1321
1 1.86309 7.0046 10.1386
1 3.47361 7.77639 10.9103
1 4.26732 6.98268 10.9103
1 4.25726 7.78805 10.1142
1 3.46115 6.97591 10.1082
1 5.06102 7.77639 10.9103
1 5.85472 6.98268 10.9103
1 5.83943 7.77067 10.1183
1 5.04393 6.99912 10.1462
1 6.64842 7.77639 10.9103
1 7.44212 6.98268 10.9103
1 7.44062 7.7638 10.0874
1 6.6476 6.9788 10.1339
1 8.23582 7.77639 10.9103
1 9.02952 6.98268 10.9103
1 9.02504 7.80252 10.1157
1 8.23453 6.95824 10.1164
1 9.82322 7.77639 10.9103
1 10.6169 6.98268 10.9103
1 10.5586 7.76989 10.0909
1 9.81255 7.00547 10.103
1 11.25 6.18898 10.9103
1 12.0437 5.39528 10.9103
1 12.0699 6.20932 10.1044
1 11.3447 5.40744 10.076
1 12.8374 6.18898 10.9103
1 13.6311 5.39528 10.9103
1 13.6461 6.20629 10.112
1 12.8792 5.40067 10.1099
1 14.4248 6.18898 10.9103
1 15.2185 5.39528 10.9103
1 15.2552 6.22033 10.1378
1 14.4298 5.41155 10.12
1 16.0122 6.18898 10.9103
1 16.8059 5.39528 10.9103
1 16.7941 6.19285 10.1187
1 16.0155 5.38879 10.1148
1 17.5996 6.18898 10.9103
1 18.3933 5.39528 10.9103
1 18.4178 6.19271 10.1327
1 17.5913 5.42747 10.1413