9376
Atoms. Timestep: 700000
1 0 3.55271e-15 10.7174
1 0.793701 29.2063 10.7174
1 0.813007 29.9293 9.89553
1 0.0722515 29.1833 9.8901
1 1.5874 3.55271e-15 10.7174
1 2.3811 29.2063 10.7174
1 2.405 29.964 9.88805
1 1.61201 29.1765 9.91722
1 3.1748 3.55271e-15 10.7174
1 3.9685 29.2063 10.7174
1 3.94139 29.9535 9.89376
1 3.17267 29.1617 9.93216
1 4.7622 3.55271e-15 10.7174
1 5.5559 29.2063 10.7174
1 5.58004 29.9206 9.89964
1 4.77036 29.1937 9.87283
1 6.3496 3.55271e-15 10.7174
1 7.1433 29.2063 10.7174
1 7.13464 29.9324 9.89282
1 6.36411 29.1746 9.91097
1 7.93701 3.55271e-15 10.7174
1 8.73071 29.2063 10.7174
1 8.72992 29.9169 9.89148
1 7.9205 29.1629 9.91032
1 9.52441 3.55271e-15 10.7174
1 10.3181 29.2063 10.7174
1 10.3136 29.9143 9.8874
1 9.54328 29.1603 9.88641
1 11.1118 3.55271e-15 10.7174
1 11.9055 29.2063 10.7174
1 11.8966 29.9196 9.89642
1 11.1331 29.1784 9.9279
1 12.6992 3.55271e-15 10.7174
1 13.4929 29.2063 10.7174
1 13.505 29.9404 9.8976
1 12.7016 29.1709 9.92736
1 14.2866 3.55271e-15 10.7174
1 15.0803 29.2063 10.7174
1 15.0835 29.9403 9.91084
1 14.271 29.1779 9.92658
1 15.874 3.55271e-15 10.7174
1 16.6677 29.2063 10.7174
1 16.6727 29.9229 9.89729
1 15.8722 29.1843 9.93248
1 17.4614 3.55271e-15 10.7174
1 18.2551 29.2063 10.7174
1 18.2306 29.9576 9.87889
1 17.4643 29.1792 9.92426
1 19.0488 3.55271e-15 10.7174
1 19.8425 29.2063 10.7174
1 19.8666 29.9288 9.89564
1 19.0556 29.1821 9.90447
1 20.6362 3.55271e-15 10.7174
1 21.4299 29.2063 10.7174
1 21.4419 29.9356 9.87789
1 20.6321 29.1646 9.93675
1 22.2236 3.55271e-15 10.7174
1 23.0173 29.2063 10.7174
1 23.0238 29.9489 9.89745
1 22.1908 29.2045 9.94197
1 23.811 3.55271e-15 10.7174
1 24.6047 29.2063 10.7174
1 24.6062 29.9612 9.87932
1 23.8215 29.1622 9.91741
1 25.3984 3.55271e-15 10.7174
1 26.1921 29.2063 10.7174
1 26.1951 29.9277 9.89554
1 25.4033 29.1733 9.90109
1 26.9858 3.55271e-15 10.7174
1 27.7795 29.2063 10.7174
1 27.7635 29.9351 9.88997
1 26.9654 29.1789 9.89081
1 28.5732 3.55271e-15 10.7174
1 29.3669 29.2063 10.7174
1 29.3201 29.9363 9.8581
1 28.5302 29.1833 9.90057
1 0 28.4126 10.7174
1 0.793701 27.6189 10.7174
1 0.840493 28.3919 9.90651
1 0.0806854 27.5917 9.885
1 1.5874 28.4126 10.7174
1 2.3811 27.6189 10.7174
1 2.38765 28.4211 9.90394
1 1.5903 27.6103 9.93539
1 3.1748 28.4126 10.7174
1 3.9685 27.6189 10.7174
1 3.96789 28.3838 9.91726
1 3.19014 27.6207 9.93747
1 4.7622 28.4126 10.7174
1 5.5559 27.6189 10.7174
1 5.58639 28.4065 9.92126
1 4.77563 27.6299 9.9366
1 6.3496 28.4126 10.7174
1 7.1433 27.6189 10.7174
1 7.17118 28.3822 9.94265
1 6.34203 27.5998 9.93518
1 7.93701 28.4126 10.7174
1 8.73071 27.6189 10.7174
1 8.73307 28.4035 9.94545
1 7.93037 27.6024 9.93201
1 9.52441 28.4126 10.7174
1 10.3181 27.6189 10.7174
1 10.3371 28.424 9.90686
1 9.52467 27.6152 9.94757
1 11.1118 28.4126 10.7174
1 11.9055 27.6189 10.7174
1 11.8977 28.3997 9.90506
1 11.1105 27.5989 9.91792
1 12.6992 28.4126 10.7174
1 13.4929 27.6189 10.7174
1 13.473 28.3839 9.93195
1 12.6692 27.6031 9.94052
1 14.2866 28.4126 10.7174
1 15.0803 27.6189 10.7174
1 15.0628 28.4278 9.94958
1 14.2709 27.6206 9.95709
1 15.874 28.4126 10.7174
1 16.6677 27.6189 10.7174
1 16.6859 28.3975 9.92632
1 15.8955 27.6102 9.94256
1 17.4614 28.4126 10.7174
1 18.2551 27.6189 10.7174
1 18.2467 28.428 9.92391
1 17.456 27.5889 9.9106
1 19.0488 28.4126 10.7174
1 19.8425 27.6189 10.7174
1 19.8788 28.4052 9.91609
1 19.0398 27.6381 9.91794
1 20.6362 28.4126 10.7174
1 21.4299 27.6189 10.7174
1 21.4296 28.4258 9.91343
1 20.6679 27.5816 9.93023
1 22.2236 28.4126 10.7174
1 23.0173 27.6189 10.7174
1 23.014 28.4021 9.94341
1 22.227 27.6368 9.91771
1 23.811 28.4126 10.7174
1 24.6047 27.6189 10.7174
1 24.6137 28.3815 9.92184
1 23.8147 27.6142 9.93405
1 25.3984 28.4126 10.7174
1 26.1921 27.6189 10.7174
1 26.1916 28.4111 9.90334
1 25.3833 27.6183 9.92679
1 26.9858 28.4126 10.7174
1 27.7795 27.6189 10.7174
1 27.7666 28.4094 9.92706
1 26.9531 27.5918 9.91295
1 28.5732 28.4126 10.7174
1 29.3669 27.6189 10.7174
1 29.2919 28.3893 9.88977
1 28.5337 27.6013 9.9237
1 0 26.8252 10.7174
1 0.793701 26.0315 10.7174
1 0.821069 26.8024 9.89594
1 0.0689529 26.0304 9.89019
1 1.5874 26.8252 10.7174
1 2.3811 26.0315 10.7174
1 2.39129 26.8221 9.913
1 1.62434 26.0072 9.93362
1 3.1748 26.8252 10.7174
1 3.9685 26.0315 10.7174
1 3.96299 26.8423 9.91925
1 3.15703 26.0401 9.92437
1 4.7622 26.8252 10.7174
1 5.5559 26.0315 10.7174
1 5.54891 26.8191 9.89907
1 4.76661 26.0319 9.93207
1 6.3496 26.8252 10.7174
1 7.1433 26.0315 10.7174
1 7.1494 26.8353 9.92681
1 6.37207 26.0357 9.93002
1 7.93701 26.8252 10.7174
1 8.73071 26.0315 10.7174
1 8.7312 26.8144 9.93911
1 7.92879 26.0171 9.9061
1 9.52441 26.8252 10.7174
1 10.3181 26.0315 10.7174
1 10.3043 26.8192 9.94433
1 9.51207 26.0389 9.96107
1 11.1118 26.8252 10.7174
1 11.9055 26.0315 10.7174
1 11.9119 26.8062 9.92211
1 11.1004 26.0336 9.9563
1 12.6992 26.8252 10.7174
1 13.4929 26.0315 10.7174
1 13.4999 26.8385 9.90473
1 12.7004 26.0184 9.90291
1 14.2866 26.8252 10.7174
1 15.0803 26.0315 10.7174
1 15.0572 26.8431 9.95169
1 14.2938 26.0307 9.89009
1 15.874 26.8252 10.7174
1 16.6677 26.0315 10.7174
1 16.6808 26.8515 9.93898
1 15.8909 26.0291 9.93571
1 17.4614 26.8252 10.7174
1 18.2551 26.0315 10.7174
1 18.2706 26.8517 9.93223
1 17.4721 26.0391 9.92897
1 19.0488 26.8252 10.7174
1 19.8425 26.0315 10.7174
1 19.8464 26.8177 9.93292
1 19.047 26.0136 9.93145
1 20.6362 26.8252 10.7174
1 21.4299 26.0315 10.7174
1 21.4625 26.8065 9.91895
1 20.6276 26.0316 9.92133
1 22.2236 26.8252 10.7174
1 23.0173 26.0315 10.7174
1 23.0289 26.8299 9.92776
1 22.2166 26.0133 9.92935
1 23.811 26.8252 10.7174
1 24.6047 26.0315 10.7174
1 24.594 26.8221 9.93529
1 23.8335 26.0432 9.92253
1 25.3984 26.8252 10.7174
1 26.1921 26.0315 10.7174
1 26.1871 26.8082 9.89121
1 25.4062 26.0401 9.93099
1 26.9858 26.8252 10.7174
1 27.7795 26.0315 10.7174
1 27.7753 26.8391 9.9289
1 26.996 26.0268 9.94668
1 28.5732 26.8252 10.7174
1 29.3669 26.0315 10.7174
1 29.3106 26.8226 9.90494
1 28.5725 26.0434 9.92903
1 0 25.2378 10.7174
1 0.793701 24.4441 10.7174
1 0.83222 25.2429 9.93526
1 0.0573237 24.4347 9.90416
1 1.5874 25.2378 10.7174
1 2.3811 24.4441 10.7174
1 2.37328 25.2444 9.93656
1 1.58742 24.4247 9.90265
1 3.1748 25.2378 10.7174
1 3.9685 24.4441 10.7174
1 3.98437 25.2525 9.93037
1 3.19727 24.4378 9.91421
1 4.7622 25.2378 10.7174
1 5.5559 24.4441 10.7174
1 5.55151 25.2203 9.92225
1 4.75771 24.4118 9.92379
1 6.3496 25.2378 10.7174
1 7.1433 24.4441 10.7174
1 7.15352 25.2579 9.94271
1 6.37069 24.4506 9.92357
1 7.93701 25.2378 10.7174
1 8.73071 24.4441 10.7174
1 8.73157 25.2345 9.92148
1 7.93851 24.4477 9.92647
1 9.52441 25.2378 10.7174
1 10.3181 24.4441 10.7174
1 10.355 25.2322 9.93494
1 9.52129 24.4505 9.95782
1 11.1118 25.2378 10.7174
1 11.9055 24.4441 10.7174
1 11.9138 25.2374 9.9346
1 11.1331 24.4247 9.90312
1 12.6992 25.2378 10.7174
1 13.4929 24.4441 10.7174
1 13.4977 25.2304 9.90585
1 12.7068 24.4187 9.94349
1 14.2866 25.2378 10.7174
1 15.0803 24.4441 10.7174
1 15.079 25.2336 9.92934
1 14.279 24.451 9.93313
1 15.874 25.2378 10.7174
1 16.6677 24.4441 10.7174
1 16.6716 25.2402 9.94057
1 15.8642 24.4339 9.93004
1 17.4614 25.2378 10.7174
1 18.2551 24.4441 10.7174
1 18.2518 25.2342 9.91789
1 17.4564 24.4431 9.91691
1 19.0488 25.2378 10.7174
1 19.8425 24.4441 10.7174
1 19.8462 25.2416 9.91833
1 19.064 24.4438 9.92997
1 20.6362 25.2378 10.7174
1 21.4299 24.4441 10.7174
1 21.4398 25.2391 9.93483
1 20.6457 24.4586 9.91266
1 22.2236 25.2378 10.7174
1 23.0173 24.4441 10.7174
1 23.0188 25.2224 9.96768
1 22.2166 24.4567 9.96152
1 23.811 25.2378 10.7174
1 24.6047 24.4441 10.7174
1 24.5972 25.2424 9.91651
1 23.8024 24.4564 9.91841
1 25.3984 25.2378 10.7174
1 26.1921 24.4441 10.7174
1 26.1875 25.2554 9.93139
1 25.3615 24.4447 9.941
1 26.9858 25.2378 10.7174
1 27.7795 24.4441 10.7174
1 27.7668 25.2425 9.94845
1 26.9602 24.4658 9.93572
1 28.5732 25.2378 10.7174
1 29.3669 24.4441 10.7174
1 29.3159 25.2377 9.87598
1 28.5543 24.4427 9.93779
1 0 23.6504 10.7174
1 0.793701 22.8567 10.7174
1 0.845566 23.621 9.89702
1 0.0654508 22.8701 9.88767
1 1.5874 23.6504 10.7174
1 2.3811 22.8567 10.7174
1 2.38091 23.658 9.91622
1 1.62895 22.8672 9.92289
1 3.1748 23.6504 10.7174
1 3.9685 22.8567 10.7174
1 3.99073 23.6338 9.91855
1 3.20407 22.8562 9.92942
1 4.7622 23.6504 10.7174
1 5.5559 22.8567 10.7174
1 5.58258 23.6686 9.92885
1 4.77733 22.867 9.90972
1 6.3496 23.6504 10.7174
1 7.1433 22.8567 10.7174
1 7.13156 23.6515 9.92456
1 6.35339 22.8562 9.93395
1 7.93701 23.6504 10.7174
1 8.73071 22.8567 10.7174
1 8.73907 23.6402 9.9492
1 7.93978 22.886 9.92196
1 9.52441 23.6504 10.7174
1 10.3181 22.8567 10.7174
1 10.3189 23.6553 9.93117
1 9.5562 22.8699 9.92796
1 11.1118 23.6504 10.7174
1 11.9055 22.8567 10.7174
1 11.9197 23.6562 9.89852
1 11.1254 22.8802 9.93589
1 12.6992 23.6504 10.7174
1 13.4929 22.8567 10.7174
1 13.5115 23.6429 9.91855
1 12.7145 22.821 9.91017
1 14.2866 23.6504 10.7174
1 15.0803 22.8567 10.7174
1 15.0787 23.6371 9.91968
1 14.3166 22.831 9.91692
1 15.874 23.6504 10.7174
1 16.6677 22.8567 10.7174
1 16.6794 23.6414 9.94144
1 15.8958 22.8635 9.92668
1 17.4614 23.6504 10.7174
1 18.2551 22.8567 10.7174
1 18.2325 23.6461 9.92147
1 17.4569 22.8543 9.92886
1 19.0488 23.6504 10.7174
1 19.8425 22.8567 10.7174
1 19.8649 23.6592 9.92885
1 19.0195 22.8736 9.89789
1 20.6362 23.6504 10.7174
1 21.4299 22.8567 10.7174
1 21.4391 23.6615 9.91996
1 20.6308 22.8633 9.91383
1 22.2236 23.6504 10.7174
1 23.0173 22.8567 10.7174
1 23.0256 23.6717 9.92992
1 22.2321 22.8976 9.91015
1 23.811 23.6504 10.7174
1 24.6047 22.8567 10.7174
1 24.5803 23.6292 9.94007
1 23.8103 22.8601 9.92481
1 25.3984 23.6504 10.7174
1 26.1921 22.8567 10.7174
1 26.198 23.6755 9.95173
1 25.3915 22.863 9.92837
1 26.9858 23.6504 10.7174
1 27.7795 22.8567 10.7174
1 27.7515 23.6741 9.91794
1 26.9963 22.8529 9.93151
1 28.5732 23.6504 10.7174
1 29.3669 22.8567 10.7174
1 29.3097 23.626 9.9054
1 28.5403 22.8685 9.9233
1 0 22.063 10.7174
1 0.793701 21.2693 10.7174
1 0.8323 22.0615 9.90513
1 0.0704053 21.2501 9.89046
1 1.5874 22.063 10.7174
1 2.3811 21.2693 10.7174
1 2.39676 22.076 9.92439
1 1.63 21.2622 9.93469
1 3.1748 22.063 10.7174
1 3.9685 21.2693 10.7174
1 3.99962 22.0786 9.90756
1 3.19004 21.2721 9.9434
1 4.7622 22.063 10.7174
1 5.5559 21.2693 10.7174
1 5.58611 22.0504 9.9175
1 4.7395 21.2783 9.90924
1 6.3496 22.063 10.7174
1 7.1433 21.2693 10.7174
1 7.13662 22.0559 9.93442
1 6.33965 21.2605 9.90352
1 7.93701 22.063 10.7174
1 8.73071 21.2693 10.7174
1 8.74521 22.1049 9.91696
1 7.91391 21.2789 9.92103
1 9.52441 22.063 10.7174
1 10.3181 21.2693 10.7174
1 10.3256 22.0443 9.91755
1 9.50594 21.2521 9.92086
1 11.1118 22.063 10.7174
1 11.9055 21.2693 10.7174
1 11.9089 22.0619 9.93097
1 11.0962 21.2609 9.95026
1 12.6992 22.063 10.7174
1 13.4929 21.2693 10.7174
1 13.4961 22.0575 9.9209
1 12.7089 21.2652 9.93089
1 14.2866 22.063 10.7174
1 15.0803 21.2693 10.7174
1 15.0891 22.0553 9.934
1 14.2979 21.2596 9.90373
1 15.874 22.063 10.7174
1 16.6677 21.2693 10.7174
1 16.6625 22.0396 9.9093
1 15.8908 21.2346 9.90815
1 17.4614 22.063 10.7174
1 18.2551 21.2693 10.7174
1 18.2447 22.0584 9.91268
1 17.4605 21.2679 9.92432
1 19.0488 22.063 10.7174
1 19.8425 21.2693 10.7174
1 19.8505 22.0772 9.90367
1 19.04 21.2583 9.9324
1 20.6362 22.063 10.7174
1 21.4299 21.2693 10.7174
1 21.4581 22.0772 9.9391
1 20.6509 21.2794 9.91843
1 22.2236 22.063 10.7174
1 23.0173 21.2693 10.7174
1 23.038 22.0591 9.91706
1 22.2295 21.256 9.91834
1 23.811 22.063 10.7174
1 24.6047 21.2693 10.7174
1 24.6041 22.0941 9.91985
1 23.8089 21.2631 9.91314
1 25.3984 22.063 10.7174
1 26.1921 21.2693 10.7174
1 26.1802 22.0683 9.91914
1 25.407 21.2797 9.90131
1 26.9858 22.063 10.7174
1 27.7795 21.2693 10.7174
1 27.7598 22.0494 9.88718
1 26.9776 21.2656 9.91645
1 28.5732 22.063 10.7174
1 29.3669 21.2693 10.7174
1 29.3079 22.0673 9.86521
1 28.5731 21.2557 9.89454
1 0 20.4756 10.7174
1 0.793701 19.6819 10.7174
1 0.856664 20.466 9.92668
1 0.0626528 19.6856 9.89321
1 1.5874 20.4756 10.7174
1 2.3811 19.6819 10.7174
1 2.38579 20.4753 9.92985
1 1.60473 19.6848 9.92109
1 3.1748 20.4756 10.7174
1 3.9685 19.6819 10.7174
1 3.9865 20.4814 9.94099
1 3.17779 19.6837 9.93231
1 4.7622 20.4756 10.7174
1 5.5559 19.6819 10.7174
1 5.55465 20.4777 9.93229
1 4.77656 19.6604 9.92674
1 6.3496 20.4756 10.7174
1 7.1433 19.6819 10.7174
1 7.13742 20.4362 9.92919
1 6.31809 19.6549 9.9089
1 7.93701 20.4756 10.7174
1 8.73071 19.6819 10.7174
1 8.71211 20.4947 9.9198
1 7.9505 19.6701 9.92501
1 9.52441 20.4756 10.7174
1 10.3181 19.6819 10.7174
1 10.3205 20.4698 9.94355
1 9.52632 19.7028 9.93843
1 11.1118 20.4756 10.7174
1 11.9055 19.6819 10.7174
1 11.9169 20.4955 9.92707
1 11.1325 19.6937 9.9227
1 12.6992 20.4756 10.7174
1 13.4929 19.6819 10.7174
1 13.505 20.5008 9.96396
1 12.7376 19.6641 9.94104
1 14.2866 20.4756 10.7174
1 15.0803 19.6819 10.7174
1 15.1014 20.4778 9.90227
1 14.2846 19.6994 9.91587
1 15.874 20.4756 10.7174
1 16.6677 19.6819 10.7174
1 16.6498 20.4677 9.92119
1 15.8881 19.6666 9.92215
1 17.4614 20.4756 10.7174
1 18.2551 19.6819 10.7174
1 18.2469 20.5054 9.93738
1 17.4719 19.6856 9.93747
1 19.0488 20.4756 10.7174
1 19.8425 19.6819 10.7174
1 19.8402 20.4914 9.9315
1 19.0333 19.6769 9.92463
1 20.6362 20.4756 10.7174
1 21.4299 19.6819 10.7174
1 21.4224 20.4664 9.911
1 20.6317 19.6709 9.93829
1 22.2236 20.4756 10.7174
1 23.0173 19.6819 10.7174
1 23.0246 20.4639 9.94115
1 22.229 19.671 9.9255
1 23.811 20.4756 10.7174
1 24.6047 19.6819 10.7174
1 24.6058 20.4602 9.92958
1 23.7777 19.6779 9.93265
1 25.3984 20.4756 10.7174
1 26.1921 19.6819 10.7174
1 26.1655 20.4778 9.91824
1 25.3925 19.6771 9.92575
1 26.9858 20.4756 10.7174
1 27.7795 19.6819 10.7174
1 27.7351 20.498 9.92737
1 26.9678 19.6872 9.93399
1 28.5732 20.4756 10.7174
1 29.3669 19.6819 10.7174
1 29.2794 20.4822 9.89355
1 28.5231 19.6936 9.91786
1 0 18.8882 10.7174
1 0.793701 18.0945 10.7174
1 0.841563 18.8729 9.93346
1 0.0418696 18.0792 9.91107
1 1.5874 18.8882 10.7174
1 2.3811 18.0945 10.7174
1 2.37441 18.8859 9.92965
1 1.60428 18.0898 9.91208
1 3.1748 18.8882 10.7174
1 3.9685 18.0945 10.7174
1 3.97298 18.8728 9.92612
1 3.18029 18.1001 9.92117
1 4.7622 18.8882 10.7174
1 5.5559 18.0945 10.7174
1 5.54917 18.865 9.93311
1 4.7565 18.0931 9.90907
1 6.3496 18.8882 10.7174
1 7.1433 18.0945 10.7174
1 7.14364 18.9047 9.93282
1 6.3518 18.0805 9.93737
1 7.93701 18.8882 10.7174
1 8.73071 18.0945 10.7174
1 8.74593 18.8808 9.91869
1 7.93428 18.0836 9.91039
1 9.52441 18.8882 10.7174
1 10.3181 18.0945 10.7174
1 10.3344 18.8937 9.93148
1 9.55505 18.0936 9.91901
1 11.1118 18.8882 10.7174
1 11.9055 18.0945 10.7174
1 11.9011 18.8773 9.94233
1 11.1109 18.085 9.93617
1 12.6992 18.8882 10.7174
1 13.4929 18.0945 10.7174
1 13.4855 18.8784 9.95432
1 12.6971 18.0836 9.93001
1 14.2866 18.8882 10.7174
1 15.0803 18.0945 10.7174
1 15.0676 18.8926 9.9355
1 14.3201 18.0781 9.89634
1 15.874 18.8882 10.7174
1 16.6677 18.0945 10.7174
1 16.6791 18.8725 9.92163
1 15.8434 18.0703 9.93208
1 17.4614 18.8882 10.7174
1 18.2551 18.0945 10.7174
1 18.2626 18.8906 9.91039
1 17.4505 18.1091 9.91041
1 19.0488 18.8882 10.7174
1 19.8425 18.0945 10.7174
1 19.8422 18.8948 9.92549
1 19.0354 18.0974 9.91037
1 20.6362 18.8882 10.7174
1 21.4299 18.0945 10.7174
1 21.4385 18.8933 9.92912
1 20.6232 18.1028 9.92341
1 22.2236 18.8882 10.7174
1 23.0173 18.0945 10.7174
1 23.0066 18.8601 9.92172
1 22.2094 18.1064 9.92858
1 23.811 18.8882 10.7174
1 24.6047 18.0945 10.7174
1 24.5816 18.8823 9.95222
1 23.8092 18.1108 9.91174
1 25.3984 18.8882 10.7174
1 26.1921 18.0945 10.7174
1 26.1872 18.8731 9.9251
1 25.3802 18.0958 9.95598
1 26.9858 18.8882 10.7174
1 27.7795 18.0945 10.7174
1 27.7537 18.8925 9.92491
1 26.9793 18.0881 9.93183
1 28.5732 18.8882 10.7174
1 29.3669 18.0945 10.7174
1 29.2738 18.8992 9.87953
1 28.5207 18.0927 9.89283
1 0 17.3008 10.7174
1 0.793701 16.5071 10.7174
1 0.84071 17.3 9.92838
1 0.0568909 16.5 9.85002
1 1.5874 17.3008 10.7174
1 2.3811 16.5071 10.7174
1 2.37601 17.2912 9.9087
1 1.58885 16.4967 9.88709
1 3.1748 17.3008 10.7174
1 3.9685 16.5071 10.7174
1 3.97616 17.2975 9.91535
1 3.16547 16.51 9.92281
1 4.7622 17.3008 10.7174
1 5.5559 16.5071 10.7174
1 5.54664 17.3075 9.91424
1 4.76303 16.5211 9.90288
1 6.3496 17.3008 10.7174
1 7.1433 16.5071 10.7174
1 7.13503 17.3224 9.92897
1 6.33945 16.5097 9.92687
1 7.93701 17.3008 10.7174
1 8.73071 16.5071 10.7174
1 8.76337 17.2754 9.92144
1 7.93981 16.5202 9.90829
1 9.52441 17.3008 10.7174
1 10.3181 16.5071 10.7174
1 10.3346 17.2739 9.89738
1 9.54386 16.4906 9.92883
1 11.1118 17.3008 10.7174
1 11.9055 16.5071 10.7174
1 11.8941 17.2934 9.93625
1 11.1056 16.5015 9.90074
1 12.6992 17.3008 10.7174
1 13.4929 16.5071 10.7174
1 13.4988 17.3017 9.91884
1 12.7145 16.4766 9.93915
1 14.2866 17.3008 10.7174
1 15.0803 16.5071 10.7174
1 15.0601 17.2842 9.9282
1 14.2817 16.4965 9.92342
1 15.874 17.3008 10.7174
1 16.6677 16.5071 10.7174
1 16.6792 17.3014 9.93185
1 15.8742 16.5086 9.92837
1 17.4614 17.3008 10.7174
1 18.2551 16.5071 10.7174
1 18.2316 17.2897 9.91751
1 17.4554 16.5094 9.90336
1 19.0488 17.3008 10.7174
1 19.8425 16.5071 10.7174
1 19.8328 17.2946 9.89852
1 19.0283 16.5184 9.92525
1 20.6362 17.3008 10.7174
1 21.4299 16.5071 10.7174
1 21.4145 17.2854 9.92607
1 20.6383 16.5108 9.92277
1 22.2236 17.3008 10.7174
1 23.0173 16.5071 10.7174
1 23.0106 17.2804 9.90971
1 22.2215 16.5204 9.92162
1 23.811 17.3008 10.7174
1 24.6047 16.5071 10.7174
1 24.5883 17.3081 9.91022
1 23.8139 16.5105 9.91988
1 25.3984 17.3008 10.7174
1 26.1921 16.5071 10.7174
1 26.2025 17.2985 9.93937
1 25.3934 16.4893 9.92618
1 26.9858 17.3008 10.7174
1 27.7795 16.5071 10.7174
1 27.7354 17.2868 9.95007
1 26.9618 16.5051 9.9255
1 28.5732 17.3008 10.7174
1 29.3669 16.5071 10.7174
1 29.2861 17.3097 9.90052
1 28.522 16.4717 9.91725
1 0 15.7134 10.7174
1 0.793701 14.9197 10.7174
1 0.814894 15.706 9.92047
1 0.0638415 14.9045 9.89743
1 1.5874 15.7134 10.7174
1 2.3811 14.9197 10.7174
1 2.38355 15.7138 9.94239
1 1.62215 14.9174 9.91459
1 3.1748 15.7134 10.7174
1 3.9685 14.9197 10.7174
1 3.9803 15.7232 9.93412
1 3.20198 14.9586 9.92465
1 4.7622 15.7134 10.7174
1 5.5559 14.9197 10.7174
1 5.55905 15.7178 9.92047
1 4.80422 14.9287 9.92541
1 6.3496 15.7134 10.7174
1 7.1433 14.9197 10.7174
1 7.12175 15.7136 9.90588
1 6.34836 14.9307 9.92806
1 7.93701 15.7134 10.7174
1 8.73071 14.9197 10.7174
1 8.7079 15.7231 9.93279
1 7.92262 14.9273 9.91064
1 9.52441 15.7134 10.7174
1 10.3181 14.9197 10.7174
1 10.3133 15.7063 9.91323
1 9.50435 14.9431 9.90299
1 11.1118 15.7134 10.7174
1 11.9055 14.9197 10.7174
1 11.9181 15.7268 9.92724
1 11.1294 14.9297 9.89785
1 12.6992 15.7134 10.7174
1 13.4929 14.9197 10.7174
1 13.4968 15.6989 9.92216
1 12.6843 14.9137 9.92369
1 14.2866 15.7134 10.7174
1 15.0803 14.9197 10.7174
1 15.0719 15.6888 9.92492
1 14.2749 14.9136 9.93851
1 15.874 15.7134 10.7174
1 16.6677 14.9197 10.7174
1 16.655 15.6967 9.92086
1 15.9041 14.9087 9.9293
1 17.4614 15.7134 10.7174
1 18.2551 14.9197 10.7174
1 18.2401 15.7097 9.91853
1 17.4737 14.9123 9.9302
1 19.0488 15.7134 10.7174
1 19.8425 14.9197 10.7174
1 19.8241 15.7311 9.93714
1 19.0537 14.9017 9.93576
1 20.6362 15.7134 10.7174
1 21.4299 14.9197 10.7174
1 21.4524 15.7299 9.91752
1 20.6457 14.9289 9.89831
1 22.2236 15.7134 10.7174
1 23.0173 14.9197 10.7174
1 23.0124 15.7172 9.93013
1 22.2105 14.9294 9.94545
1 23.811 15.7134 10.7174
1 24.6047 14.9197 10.7174
1 24.6162 15.7058 9.9247
1 23.8066 14.9053 9.95143
1 25.3984 15.7134 10.7174
1 26.1921 14.9197 10.7174
1 26.1982 15.7042 9.9305
1 25.4054 14.9124 9.90547
1 26.9858 15.7134 10.7174
1 27.7795 14.9197 10.7174
1 27.7884 15.711 9.95063
1 27.0178 14.9262 9.92983
1 28.5732 15.7134 10.7174
1 29.3669 14.9197 10.7174
1 29.3002 15.7048 9.87232
1 28.5264 14.9389 9.89471
1 0 14.126 10.7174
1 0.793701 13.3323 10.7174
1 0.822201 14.1123 9.91237
1 0.0713787 13.3261 9.89293
1 1.5874 14.126 10.7174
1 2.3811 13.3323 10.7174
1 2.39864 14.126 9.91446
1 1.60218 13.3266 9.91051
1 3.1748 14.126 10.7174
1 3.9685 13.3323 10.7174
1 3.98266 14.1315 9.92908
1 3.1939 13.3478 9.92426
1 4.7622 14.126 10.7174
1 5.5559 13.3323 10.7174
1 5.56433 14.1252 9.92037
1 4.76253 13.3147 9.92624
1 6.3496 14.126 10.7174
1 7.1433 13.3323 10.7174
1 7.1263 14.1266 9.93811
1 6.35378 13.353 9.92674
1 7.93701 14.126 10.7174
1 8.73071 13.3323 10.7174
1 8.73739 14.1335 9.90261
1 7.91705 13.3238 9.95212
1 9.52441 14.126 10.7174
1 10.3181 13.3323 10.7174
1 10.317 14.139 9.92481
1 9.52552 13.3318 9.9154
1 11.1118 14.126 10.7174
1 11.9055 13.3323 10.7174
1 11.9064 14.1249 9.92862
1 11.1031 13.326 9.9466
1 12.6992 14.126 10.7174
1 13.4929 13.3323 10.7174
1 13.4865 14.1005 9.93494
1 12.6739 13.3237 9.91377
1 14.2866 14.126 10.7174
1 15.0803 13.3323 10.7174
1 15.0798 14.1272 9.91537
1 14.2882 13.3526 9.93272
1 15.874 14.126 10.7174
1 16.6677 13.3323 10.7174
1 16.6692 14.1502 9.93872
1 15.8815 13.3172 9.94857
1 17.4614 14.126 10.7174
1 18.2551 13.3323 10.7174
1 18.2451 14.1057 9.93802
1 17.4476 13.3407 9.9575
1 19.0488 14.126 10.7174
1 19.8425 13.3323 10.7174
1 19.8581 14.1344 9.91569
1 19.0288 13.3463 9.92727
1 20.6362 14.126 10.7174
1 21.4299 13.3323 10.7174
1 21.4308 14.1167 9.91694
1 20.6489 13.3195 9.94019
1 22.2236 14.126 10.7174
1 23.0173 13.3323 10.7174
1 23.0159 14.1244 9.90459
1 22.2107 13.307 9.96069
1 23.811 14.126 10.7174
1 24.6047 13.3323 10.7174
1 24.5789 14.1324 9.94174
1 23.7978 13.3323 9.91231
1 25.3984 14.126 10.7174
1 26.1921 13.3323 10.7174
1 26.2176 14.1181 9.93836
1 25.3915 13.364 9.90882
1 26.9858 14.126 10.7174
1 27.7795 13.3323 10.7174
1 27.7707 14.1196 9.89856
1 26.9843 13.3261 9.89516
1 28.5732 14.126 10.7174
1 29.3669 13.3323 10.7174
1 29.2966 14.1429 9.90562
1 28.5399 13.3372 9.90756
1 0 12.5386 10.7174
1 0.793701 11.7449 10.7174
1 0.839417 12.5304 9.91784
1 0.0770486 11.7484 9.90584
1 1.5874 12.5386 10.7174
1 2.3811 11.7449 10.7174
1 2.39564 12.5435 9.93763
1 1.6009 11.7426 9.91126
1 3.1748 12.5386 10.7174
1 3.9685 11.7449 10.7174
1 3.98781 12.5476 9.90134
1 3.19003 11.7623 9.90178
1 4.7622 12.5386 10.7174
1 5.5559 11.7449 10.7174
1 5.56654 12.5333 9.93056
1 4.76728 11.7268 9.91602
1 6.3496 12.5386 10.7174
1 7.1433 11.7449 10.7174
1 7.14673 12.5601 9.91427
1 6.34243 11.7518 9.89776
1 7.93701 12.5386 10.7174
1 8.73071 11.7449 10.7174
1 8.72526 12.5366 9.91539
1 7.95918 11.7363 9.93876
1 9.52441 12.5386 10.7174
1 10.3181 11.7449 10.7174
1 10.3268 12.5084 9.93332
1 9.54802 11.7601 9.93774
1 11.1118 12.5386 10.7174
1 11.9055 11.7449 10.7174
1 11.9033 12.5193 9.92153
1 11.1299 11.7246 9.93308
1 12.6992 12.5386 10.7174
1 13.4929 11.7449 10.7174
1 13.473 12.5531 9.91749
1 12.6902 11.7506 9.92601
1 14.2866 12.5386 10.7174
1 15.0803 11.7449 10.7174
1 15.0879 12.5471 9.90641
1 14.3152 11.7513 9.90674
1 15.874 12.5386 10.7174
1 16.6677 11.7449 10.7174
1 16.6864 12.5314 9.91688
1 15.8726 11.7396 9.9153
1 17.4614 12.5386 10.7174
1 18.2551 11.7449 10.7174
1 18.2525 12.5551 9.91426
1 17.4629 11.7447 9.9253
1 19.0488 12.5386 10.7174
1 19.8425 11.7449 10.7174
1 19.8388 12.5374 9.9113
1 19.0531 11.7864 9.90509
1 20.6362 12.5386 10.7174
1 21.4299 11.7449 10.7174
1 21.4213 12.5159 9.92917
1 20.6345 11.7286 9.91412
1 22.2236 12.5386 10.7174
1 23.0173 11.7449 10.7174
1 23.008 12.5166 9.91935
1 22.2285 11.7535 9.92862
1 23.811 12.5386 10.7174
1 24.6047 11.7449 10.7174
1 24.6231 12.5398 9.97133
1 23.8164 11.7394 9.93303
1 25.3984 12.5386 10.7174
1 26.1921 11.7449 10.7174
1 26.2043 12.5585 9.92496
1 25.3954 11.7548 9.91562
1 26.9858 12.5386 10.7174
1 27.7795 11.7449 10.7174
1 27.7769 12.5415 9.95002
1 26.9826 11.7386 9.91689
1 28.5732 12.5386 10.7174
1 29.3669 11.7449 10.7174
1 29.3073 12.538 9.89089
1 28.5523 11.7315 9.91099
1 0 10.9512 10.7174
1 0.793701 10.1575 10.7174
1 0.85478 10.9495 9.91682
1 0.085622 10.1678 9.8664
1 1.5874 10.9512 10.7174
1 2.3811 10.1575 10.7174
1 2.41997 10.9717 9.91422
1 1.61594 10.1445 9.91649
1 3.1748 10.9512 10.7174
1 3.9685 10.1575 10.7174
1 3.98893 10.9356 9.90569
1 3.20156 10.1458 9.92004
1 4.7622 10.9512 10.7174
1 5.5559 10.1575 10.7174
1 5.56442 10.964 9.94344
1 4.79114 10.1466 9.92584
1 6.3496 10.9512 10.7174
1 7.1433 10.1575 10.7174
1 7.15014 10.9551 9.92205
1 6.38119 10.157 9.92466
1 7.93701 10.9512 10.7174
1 8.73071 10.1575 10.7174
1 8.74687 10.975 9.91685
1 7.95318 10.1561 9.91835
1 9.52441 10.9512 10.7174
1 10.3181 10.1575 10.7174
1 10.334 10.9606 9.92091
1 9.52574 10.1584 9.9302
1 11.1118 10.9512 10.7174
1 11.9055 10.1575 10.7174
1 11.9151 10.9579 9.92716
1 11.1192 10.1767 9.92196
1 12.6992 10.9512 10.7174
1 13.4929 10.1575 10.7174
1 13.4883 10.9549 9.93991
1 12.695 10.1476 9.92067
1 14.2866 10.9512 10.7174
1 15.0803 10.1575 10.7174
1 15.0673 10.9618 9.89135
1 14.3114 10.1589 9.92203
1 15.874 10.9512 10.7174
1 16.6677 10.1575 10.7174
1 16.6733 10.9331 9.91707
1 15.8742 10.1977 9.92423
1 17.4614 10.9512 10.7174
1 18.2551 10.1575 10.7174
1 18.2561 10.9834 9.91896
1 17.4592 10.1708 9.91872
1 19.0488 10.9512 10.7174
1 19.8425 10.1575 10.7174
1 19.822 10.964 9.93956
1 19.0398 10.1768 9.93688
1 20.6362 10.9512 10.7174
1 21.4299 10.1575 10.7174
1 21.4366 10.9779 9.93421
1 20.6254 10.1644 9.93265
1 22.2236 10.9512 10.7174
1 23.0173 10.1575 10.7174
1 23.0201 10.9498 9.94968
1 22.2144 10.1823 9.93871
1 23.811 10.9512 10.7174
1 24.6047 10.1575 10.7174
1 24.6076 10.9582 9.91864
1 23.8315 10.1661 9.92116
1 25.3984 10.9512 10.7174
1 26.1921 10.1575 10.7174
1 26.1908 10.9603 9.93923
1 25.4194 10.1798 9.95089
1 26.9858 10.9512 10.7174
1 27.7795 10.1575 10.7174
1 27.7389 10.9519 9.89406
1 26.9816 10.1319 9.92518
1 28.5732 10.9512 10.7174
1 29.3669 10.1575 10.7174
1 29.3222 10.9372 9.86776
1 28.5543 10.163 9.89877
1 0 9.36379 10.7174
1 0.793701 8.57009 10.7174
1 0.82262 9.35535 9.92139
1 0.0607935 8.57748 9.87666
1 1.5874 9.36379 10.7174
1 2.3811 8.57009 10.7174
1 2.40464 9.35868 9.93185
1 1.583 8.56055 9.94457
1 3.1748 9.36379 10.7174
1 3.9685 8.57009 10.7174
1 3.99393 9.34659 9.92911
1 3.18903 8.57211 9.93193
1 4.7622 9.36379 10.7174
1 5.5559 8.57009 10.7174
1 5.55763 9.34553 9.91304
1 4.78062 8.58535 9.90467
1 6.3496 9.36379 10.7174
1 7.1433 8.57009 10.7174
1 7.1638 9.35736 9.94383
1 6.34355 8.55347 9.93246
1 7.93701 9.36379 10.7174
1 8.73071 8.57009 10.7174
1 8.75615 9.35213 9.92234
1 7.94946 8.5861 9.92439
1 9.52441 9.36379 10.7174
1 10.3181 8.57009 10.7174
1 10.3388 9.37271 9.91383
1 9.55542 8.5815 9.90683
1 11.1118 9.36379 10.7174
1 11.9055 8.57009 10.7174
1 11.9041 9.36596 9.91441
1 11.1153 8.5667 9.92036
1 12.6992 9.36379 10.7174
1 13.4929 8.57009 10.7174
1 13.5047 9.37027 9.92339
1 12.6945 8.57897 9.93535
1 14.2866 9.36379 10.7174
1 15.0803 8.57009 10.7174
1 15.0941 9.38373 9.91897
1 14.292 8.57448 9.89829
1 15.874 9.36379 10.7174
1 16.6677 8.57009 10.7174
1 16.6537 9.36408 9.92543
1 15.8921 8.57082 9.92088
1 17.4614 9.36379 10.7174
1 18.2551 8.57009 10.7174
1 18.2612 9.38775 9.9304
1 17.4828 8.57366 9.91948
1 19.0488 9.36379 10.7174
1 19.8425 8.57009 10.7174
1 19.8393 9.36946 9.9128
1 19.078 8.56927 9.91145
1 20.6362 9.36379 10.7174
1 21.4299 8.57009 10.7174
1 21.4233 9.38824 9.92152
1 20.6477 8.57469 9.94096
1 22.2236 9.36379 10.7174
1 23.0173 8.57009 10.7174
1 23.0043 9.37768 9.92025
1 22.2271 8.58336 9.90511
1 23.811 9.36379 10.7174
1 24.6047 8.57009 10.7174
1 24.6051 9.35393 9.92614
1 23.7951 8.58084 9.93292
1 25.3984 9.36379 10.7174
1 26.1921 8.57009 10.7174
1 26.1795 9.362 9.90472
1 25.3981 8.5548 9.92173
1 26.9858 9.36379 10.7174
1 27.7795 8.57009 10.7174
1 27.7942 9.36224 9.91233
1 26.9716 8.59712 9.90849
1 28.5732 9.36379 10.7174
1 29.3669 8.57009 10.7174
1 29.3051 9.35951 9.91802
1 28.5564 8.55529 9.92745
1 0 7.77639 10.7174
1 0.793701 6.98268 10.7174
1 0.819462 7.78864 9.93903
1 0.0650984 7.00536 9.89323
1 1.5874 7.77639 10.7174
1 2.3811 6.98268 10.7174
1 2.4096 7.77039 9.93603
1 1.59222 6.97947 9.89301
1 3.1748 7.77639 10.7174
1 3.9685 6.98268 10.7174
1 3.97002 7.78731 9.93877
1 3.19999 6.96561 9.94084
1 4.7622 7.77639 10.7174
1 5.5559 6.98268 10.7174
1 5.5537 7.78274 9.91221
1 4.76504 7.00028 9.92634
1 6.3496 7.77639 10.7174
1 7.1433 6.98268 10.7174
1 7.15177 7.78544 9.93953
1 6.37657 6.98481 9.94632
1 7.93701 7.77639 10.7174
1 8.73071 6.98268 10.7174
1 8.75953 7.79123 9.91921
1 7.93556 6.98282 9.91557
1 9.52441 7.77639 10.7174
1 10.3181 6.98268 10.7174
1 10.3256 7.78377 9.94766
1 9.51911 6.94726 9.92366
1 11.1118 7.77639 10.7174
1 11.9055 6.98268 10.7174
1 11.8871 7.79125 9.94275
1 11.1376 7.00142 9.93946
1 12.6992 7.77639 10.7174
1 13.4929 6.98268 10.7174
1 13.5107 7.80195 9.90605
1 12.7068 6.97335 9.9131
1 14.2866 7.77639 10.7174
1 15.0803 6.98268 10.7174
1 15.088 7.786 9.93357
1 14.2994 6.97331 9.93601
1 15.874 7.77639 10.7174
1 16.6677 6.98268 10.7174
1 16.6889 7.75471 9.93639
1 15.879 6.99566 9.90184
1 17.4614 7.77639 10.7174
1 18.2551 6.98268 10.7174
1 18.2622 7.75723 9.93164
1 17.4642 6.99048 9.91406
1 19.0488 7.77639 10.7174
1 19.8425 6.98268 10.7174
1 19.855 7.75443 9.9104
1 19.0652 6.97714 9.93016
1 20.6362 7.77639 10.7174
1 21.4299 6.98268 10.7174
1 21.4459 7.77278 9.92797
1 20.6299 6.97452 9.93036
1 22.2236 7.77639 10.7174
1 23.0173 6.98268 10.7174
1 23.0004 7.7646 9.9343
1 22.2249 6.98223 9.92484
1 23.811 7.77639 10.7174
1 24.6047 6.98268 10.7174
1 24.5863 7.77866 9.91605
1 23.8208 6.97095 9.90704
1 25.3984 7.77639 10.7174
1 26.1921 6.98268 10.7174
1 26.1809 7.78299 9.91332
1 25.3793 7.009 9.89714
1 26.9858 7.77639 10.7174
1 27.7795 6.98268 10.7174
1 27.7666 7.76956 9.89572
1 26.9785 6.96105 9.9188
1 28.5732 7.77639 10.7174
1 29.3669 6.98268 10.7174
1 29.2823 7.78809 9.87142
1 28.5501 6.97317 9.91875
1 0 6.18898 10.7174
1 0.793701 5.39528 10.7174
1 0.83098 6.20733 9.91668
1 0.0910581 5.42425 9.89678
1 1.5874 6.18898 10.7174
1 2.3811 5.39528 10.7174
1 2.39042 6.18553 9.91997
1 1.59361 5.40983 9.91022
1 3.1748 6.18898 10.7174
1 3.9685 5.39528 10.7174
1 3.97392 6.1868 9.94651
1 3.17476 5.40039 9.91234
1 4.7622 6.18898 10.7174
1 5.5559 5.39528 10.7174
1 5.55551 6.21396 9.92212
1 4.79862 5.39682 9.93207
1 6.3496 6.18898 10.7174
1 7.1433 5.39528 10.7174
1 7.14879 6.20113 9.92752
1 6.35803 5.40782 9.92496
1 7.93701 6.18898 10.7174
1 8.73071 5.39528 10.7174
1 8.74051 6.16796 9.94732
1 7.91514 5.40084 9.92829
1 9.52441 6.18898 10.7174