9376
Atoms. Timestep: 4000000
1 15 3.55271e-15 10.6047
1 15.7937 29.2063 10.6047
1 15.8496 29.9093 9.76068
1 15.0704 29.1606 9.77279
1 16.5874 3.55271e-15 10.6047
1 17.3811 29.2063 10.6047
1 17.3812 29.9028 9.78245
1 16.6136 29.1614 9.81154
1 18.1748 3.55271e-15 10.6047
1 18.9685 29.2063 10.6047
1 18.9752 29.9341 9.76823
1 18.2069 29.1403 9.79703
1 19.7622 3.55271e-15 10.6047
1 20.5559 29.2063 10.6047
1 20.56 29.9273 9.77231
1 19.7488 29.1698 9.79801
1 21.3496 3.55271e-15 10.6047
1 22.1433 29.2063 10.6047
1 22.1603 29.9476 9.8037
1 21.3779 29.1906 9.79028
1 22.937 3.55271e-15 10.6047
1 23.7307 29.2063 10.6047
1 23.7281 29.9109 9.78561
1 22.9525 29.1579 9.80736
1 24.5244 3.55271e-15 10.6047
1 25.3181 29.2063 10.6047
1 25.3108 29.9247 9.78292
1 24.5385 29.1637 9.77436
1 26.1118 3.55271e-15 10.6047
1 26.9055 29.2063 10.6047
1 26.8767 29.9394 9.75825
1 26.1028 29.1788 9.83056
1 27.6992 3.55271e-15 10.6047
1 28.4929 29.2063 10.6047
1 28.5006 29.9237 9.766
1 27.6899 29.1713 9.81441
1 29.2866 3.55271e-15 10.6047
1 0.08031 29.2063 10.6047
1 0.0961575 29.9463 9.7882
1 29.2825 29.2006 9.79625
1 0.874011 3.55271e-15 10.6047
1 1.66771 29.2063 10.6047
1 1.68157 29.9374 9.7782
1 0.871848 29.2138 9.81505
1 2.46141 3.55271e-15 10.6047
1 3.25511 29.2063 10.6047
1 3.25985 29.9111 9.78621
1 2.47144 29.1676 9.79463
1 4.04881 3.55271e-15 10.6047
1 4.84251 29.2063 10.6047
1 4.83296 29.9219 9.76527
1 4.06549 29.1875 9.7955
1 5.63621 3.55271e-15 10.6047
1 6.42991 29.2063 10.6047
1 6.42369 29.9409 9.78293
1 5.64448 29.1807 9.81689
1 7.22361 3.55271e-15 10.6047
1 8.01732 29.2063 10.6047
1 8.00488 29.9359 9.7965
1 7.22242 29.1593 9.82472
1 8.81102 3.55271e-15 10.6047
1 9.60472 29.2063 10.6047
1 9.60285 29.9155 9.76613
1 8.78954 29.1551 9.81751
1 10.3984 3.55271e-15 10.6047
1 11.1921 29.2063 10.6047
1 11.1905 29.9212 9.77155
1 10.3966 29.203 9.81104
1 11.9858 3.55271e-15 10.6047
1 12.7795 29.2063 10.6047
1 12.7615 29.9583 9.77063
1 11.989 29.193 9.79479
1 13.5732 3.55271e-15 10.6047
1 14.3669 29.2063 10.6047
1 14.3087 29.9023 9.74821
1 13.5334 29.1955 9.80971
1 15 28.4126 10.6047
1 15.7937 27.6189 10.6047
1 15.8144 28.3885 9.81396
1 15.0621 27.6027 9.77028
1 16.5874 28.4126 10.6047
1 17.3811 27.6189 10.6047
1 17.3896 28.3897 9.80722
1 16.6108 27.6073 9.81391
1 18.1748 28.4126 10.6047
1 18.9685 27.6189 10.6047
1 18.9676 28.3813 9.78847
1 18.1701 27.5773 9.7911
1 19.7622 28.4126 10.6047
1 20.5559 27.6189 10.6047
1 20.5417 28.4048 9.79101
1 19.7552 27.5855 9.79096
1 21.3496 28.4126 10.6047
1 22.1433 27.6189 10.6047
1 22.1621 28.3973 9.80761
1 21.3374 27.5989 9.79584
1 22.937 28.4126 10.6047
1 23.7307 27.6189 10.6047
1 23.7385 28.3996 9.80786
1 22.9375 27.6171 9.8173
1 24.5244 28.4126 10.6047
1 25.3181 27.6189 10.6047
1 25.3367 28.3977 9.83227
1 24.5379 27.6003 9.80776
1 26.1118 28.4126 10.6047
1 26.9055 27.6189 10.6047
1 26.9282 28.3909 9.79984
1 26.123 27.6189 9.81457
1 27.6992 28.4126 10.6047
1 28.4929 27.6189 10.6047
1 28.5004 28.4001 9.82206
1 27.7005 27.6201 9.80673
1 29.2866 28.4126 10.6047
1 0.08031 27.6189 10.6047
1 0.0772568 28.4244 9.79412
1 29.2916 27.6086 9.80457
1 0.874011 28.4126 10.6047
1 1.66771 27.6189 10.6047
1 1.67357 28.4127 9.81903
1 0.881768 27.6159 9.81213
1 2.46141 28.4126 10.6047
1 3.25511 27.6189 10.6047
1 3.27675 28.3862 9.81472
1 2.45203 27.6258 9.79475
1 4.04881 28.4126 10.6047
1 4.84251 27.6189 10.6047
1 4.83649 28.3839 9.83086
1 4.07308 27.5874 9.80504
1 5.63621 28.4126 10.6047
1 6.42991 27.6189 10.6047
1 6.40591 28.3928 9.81479
1 5.61895 27.6044 9.78798
1 7.22361 28.4126 10.6047
1 8.01732 27.6189 10.6047
1 7.99815 28.3774 9.80381
1 7.20297 27.5902 9.80412
1 8.81102 28.4126 10.6047
1 9.60472 27.6189 10.6047
1 9.61386 28.4108 9.80726
1 8.81226 27.593 9.80984
1 10.3984 28.4126 10.6047
1 11.1921 27.6189 10.6047
1 11.205 28.394 9.7926
1 10.3943 27.6068 9.81156
1 11.9858 28.4126 10.6047
1 12.7795 27.6189 10.6047
1 12.7541 28.3864 9.82009
1 11.9743 27.573 9.80927
1 13.5732 28.4126 10.6047
1 14.3669 27.6189 10.6047
1 14.2961 28.4143 9.77221
1 13.5351 27.6065 9.79483
1 15 26.8252 10.6047
1 15.7937 26.0315 10.6047
1 15.8337 26.8213 9.76148
1 15.0931 26.0289 9.77447
1 16.5874 26.8252 10.6047
1 17.3811 26.0315 10.6047
1 17.4063 26.8116 9.82176
1 16.5997 26.0054 9.82853
1 18.1748 26.8252 10.6047
1 18.9685 26.0315 10.6047
1 18.9664 26.8026 9.79034
1 18.2093 25.9891 9.7879
1 19.7622 26.8252 10.6047
1 20.5559 26.0315 10.6047
1 20.5719 26.812 9.80464
1 19.7618 26.0263 9.81056
1 21.3496 26.8252 10.6047
1 22.1433 26.0315 10.6047
1 22.159 26.8231 9.7919
1 21.3789 26.0271 9.82864
1 22.937 26.8252 10.6047
1 23.7307 26.0315 10.6047
1 23.7224 26.8197 9.80757
1 22.948 26.0295 9.79275
1 24.5244 26.8252 10.6047
1 25.3181 26.0315 10.6047
1 25.3232 26.8224 9.796
1 24.5442 26.0356 9.79945
1 26.1118 26.8252 10.6047
1 26.9055 26.0315 10.6047
1 26.9299 26.8019 9.80744
1 26.1356 26.0292 9.82124
1 27.6992 26.8252 10.6047
1 28.4929 26.0315 10.6047
1 28.4834 26.801 9.82677
1 27.7051 26.0259 9.80998
1 29.2866 26.8252 10.6047
1 0.08031 26.0315 10.6047
1 0.085313 26.8295 9.81882
1 29.2806 26.0358 9.81101
1 0.874011 26.8252 10.6047
1 1.66771 26.0315 10.6047
1 1.65279 26.8396 9.80262
1 0.880824 26.0321 9.81233
1 2.46141 26.8252 10.6047
1 3.25511 26.0315 10.6047
1 3.24339 26.8465 9.80941
1 2.48032 26.0662 9.79404
1 4.04881 26.8252 10.6047
1 4.84251 26.0315 10.6047
1 4.82959 26.7942 9.80032
1 4.04549 26.0291 9.78616
1 5.63621 26.8252 10.6047
1 6.42991 26.0315 10.6047
1 6.4159 26.8213 9.78027
1 5.64942 26.0405 9.78969
1 7.22361 26.8252 10.6047
1 8.01732 26.0315 10.6047
1 8.03015 26.826 9.83067
1 7.23241 26.0537 9.81963
1 8.81102 26.8252 10.6047
1 9.60472 26.0315 10.6047
1 9.59251 26.8198 9.82071
1 8.79618 26.0121 9.82999
1 10.3984 26.8252 10.6047
1 11.1921 26.0315 10.6047
1 11.1887 26.808 9.82356
1 10.3838 26.0298 9.82232
1 11.9858 26.8252 10.6047
1 12.7795 26.0315 10.6047
1 12.758 26.8053 9.82688
1 11.9616 25.9975 9.78331
1 13.5732 26.8252 10.6047
1 14.3669 26.0315 10.6047
1 14.2982 26.8031 9.79434
1 13.5295 26.0206 9.80944
1 15 25.2378 10.6047
1 15.7937 24.4441 10.6047
1 15.8355 25.2075 9.79954
1 15.0711 24.4465 9.77157
1 16.5874 25.2378 10.6047
1 17.3811 24.4441 10.6047
1 17.3917 25.2331 9.79531
1 16.6168 24.4219 9.78974
1 18.1748 25.2378 10.6047
1 18.9685 24.4441 10.6047
1 18.988 25.2189 9.79295
1 18.1991 24.428 9.79532
1 19.7622 25.2378 10.6047
1 20.5559 24.4441 10.6047
1 20.5604 25.2365 9.81527
1 19.7725 24.4468 9.80611
1 21.3496 25.2378 10.6047
1 22.1433 24.4441 10.6047
1 22.1709 25.2271 9.82807
1 21.3637 24.4383 9.81151
1 22.937 25.2378 10.6047
1 23.7307 24.4441 10.6047
1 23.7417 25.2321 9.80609
1 22.9441 24.4228 9.81491
1 24.5244 25.2378 10.6047
1 25.3181 24.4441 10.6047
1 25.3486 25.2274 9.82757
1 24.557 24.4072 9.8117
1 26.1118 25.2378 10.6047
1 26.9055 24.4441 10.6047
1 26.926 25.2431 9.79584
1 26.122 24.4472 9.82106
1 27.6992 25.2378 10.6047
1 28.4929 24.4441 10.6047
1 28.4917 25.214 9.81057
1 27.6912 24.4405 9.79686
1 29.2866 25.2378 10.6047
1 0.08031 24.4441 10.6047
1 0.079584 25.2329 9.81495
1 29.301 24.4192 9.83464
1 0.874011 25.2378 10.6047
1 1.66771 24.4441 10.6047
1 1.6739 25.2489 9.8151
1 0.884713 24.4308 9.80739
1 2.46141 25.2378 10.6047
1 3.25511 24.4441 10.6047
1 3.2507 25.233 9.81785
1 2.45952 24.4485 9.80411
1 4.04881 25.2378 10.6047
1 4.84251 24.4441 10.6047
1 4.83697 25.2629 9.83127
1 4.02315 24.4446 9.79943
1 5.63621 25.2378 10.6047
1 6.42991 24.4441 10.6047
1 6.45049 25.2423 9.78602
1 5.62849 24.4535 9.79863
1 7.22361 25.2378 10.6047
1 8.01732 24.4441 10.6047
1 8.00995 25.228 9.80341
1 7.22323 24.4566 9.79294
1 8.81102 25.2378 10.6047
1 9.60472 24.4441 10.6047
1 9.61018 25.2413 9.81559
1 8.80187 24.4387 9.81853
1 10.3984 25.2378 10.6047
1 11.1921 24.4441 10.6047
1 11.1838 25.226 9.81142
1 10.3628 24.4262 9.82165
1 11.9858 25.2378 10.6047
1 12.7795 24.4441 10.6047
1 12.7624 25.2606 9.82894
1 11.9831 24.4425 9.79427
1 13.5732 25.2378 10.6047
1 14.3669 24.4441 10.6047
1 14.3301 25.233 9.78112
1 13.5279 24.4463 9.79472
1 15 23.6504 10.6047
1 15.7937 22.8567 10.6047
1 15.797 23.6707 9.79639
1 15.0776 22.8575 9.79537
1 16.5874 23.6504 10.6047
1 17.3811 22.8567 10.6047
1 17.3941 23.6561 9.79855
1 16.6044 22.879 9.82608
1 18.1748 23.6504 10.6047
1 18.9685 22.8567 10.6047
1 19.0019 23.6381 9.82683
1 18.1772 22.8536 9.80265
1 19.7622 23.6504 10.6047
1 20.5559 22.8567 10.6047
1 20.546 23.6317 9.8156
1 19.7767 22.856 9.80733
1 21.3496 23.6504 10.6047
1 22.1433 22.8567 10.6047
1 22.1251 23.6428 9.80018
1 21.3405 22.8618 9.82206
1 22.937 23.6504 10.6047
1 23.7307 22.8567 10.6047
1 23.7535 23.6596 9.80016
1 22.9205 22.8395 9.82558
1 24.5244 23.6504 10.6047
1 25.3181 22.8567 10.6047
1 25.3217 23.6252 9.81319
1 24.5213 22.8258 9.81741
1 26.1118 23.6504 10.6047
1 26.9055 22.8567 10.6047
1 26.9065 23.6724 9.79384
1 26.1219 22.8271 9.81197
1 27.6992 23.6504 10.6047
1 28.4929 22.8567 10.6047
1 28.4803 23.636 9.81345
1 27.6665 22.8478 9.80125
1 29.2866 23.6504 10.6047
1 0.08031 22.8567 10.6047
1 0.0815185 23.6573 9.81732
1 29.2654 22.8484 9.80931
1 0.874011 23.6504 10.6047
1 1.66771 22.8567 10.6047
1 1.67298 23.6502 9.82862
1 0.877253 22.8645 9.8027
1 2.46141 23.6504 10.6047
1 3.25511 22.8567 10.6047
1 3.2678 23.6365 9.81755
1 2.46685 22.8512 9.82265
1 4.04881 23.6504 10.6047
1 4.84251 22.8567 10.6047
1 4.82256 23.659 9.78019
1 4.03818 22.8651 9.81796
1 5.63621 23.6504 10.6047
1 6.42991 22.8567 10.6047
1 6.43036 23.672 9.78737
1 5.62317 22.8441 9.81922
1 7.22361 23.6504 10.6047
1 8.01732 22.8567 10.6047
1 8.02103 23.651 9.80402
1 7.21523 22.8562 9.82294
1 8.81102 23.6504 10.6047
1 9.60472 22.8567 10.6047
1 9.5795 23.6369 9.80065
1 8.80829 22.8396 9.81321
1 10.3984 23.6504 10.6047
1 11.1921 22.8567 10.6047
1 11.1643 23.6656 9.81826
1 10.3756 22.846 9.83096
1 11.9858 23.6504 10.6047
1 12.7795 22.8567 10.6047
1 12.7696 23.6576 9.81154
1 11.9653 22.8924 9.81354
1 13.5732 23.6504 10.6047
1 14.3669 22.8567 10.6047
1 14.3026 23.6408 9.77731
1 13.5745 22.8505 9.7987
1 15 22.063 10.6047
1 15.7937 21.2693 10.6047
1 15.821 22.0449 9.82538
1 15.0653 21.2775 9.81038
1 16.5874 22.063 10.6047
1 17.3811 21.2693 10.6047
1 17.3892 22.0609 9.81353
1 16.5803 21.2646 9.81415
1 18.1748 22.063 10.6047
1 18.9685 21.2693 10.6047
1 18.9824 22.0657 9.79047
1 18.1633 21.2491 9.84754
1 19.7622 22.063 10.6047
1 20.5559 21.2693 10.6047
1 20.5763 22.0552 9.8028
1 19.7827 21.2647 9.82336
1 21.3496 22.063 10.6047
1 22.1433 21.2693 10.6047
1 22.1305 22.0941 9.79815
1 21.3431 21.2531 9.81727
1 22.937 22.063 10.6047
1 23.7307 21.2693 10.6047
1 23.7322 22.068 9.80117
1 22.9422 21.2804 9.82348
1 24.5244 22.063 10.6047
1 25.3181 21.2693 10.6047
1 25.334 22.0742 9.80385
1 24.5308 21.2791 9.81087
1 26.1118 22.063 10.6047
1 26.9055 21.2693 10.6047
1 26.8822 22.0453 9.81739
1 26.1258 21.2703 9.80113
1 27.6992 22.063 10.6047
1 28.4929 21.2693 10.6047
1 28.4902 22.0587 9.83665
1 27.6966 21.2586 9.78567
1 29.2866 22.063 10.6047
1 0.08031 21.2693 10.6047
1 0.0725337 22.0729 9.84644
1 29.2664 21.2767 9.83712
1 0.874011 22.063 10.6047
1 1.66771 21.2693 10.6047
1 1.64547 22.0642 9.80228
1 0.884361 21.2914 9.81446
1 2.46141 22.063 10.6047
1 3.25511 21.2693 10.6047
1 3.25566 22.0729 9.82189
1 2.44244 21.28 9.79645
1 4.04881 22.063 10.6047
1 4.84251 21.2693 10.6047
1 4.84352 22.0544 9.80694
1 4.0143 21.2896 9.79244
1 5.63621 22.063 10.6047
1 6.42991 21.2693 10.6047
1 6.41631 22.059 9.79359
1 5.63515 21.2467 9.79813
1 7.22361 22.063 10.6047
1 8.01732 21.2693 10.6047
1 8.00547 22.057 9.80574
1 7.22054 21.2398 9.82063
1 8.81102 22.063 10.6047
1 9.60472 21.2693 10.6047
1 9.58527 22.0478 9.81117
1 8.77391 21.2456 9.7925
1 10.3984 22.063 10.6047
1 11.1921 21.2693 10.6047
1 11.1649 22.0677 9.83943
1 10.3716 21.2727 9.83681
1 11.9858 22.063 10.6047
1 12.7795 21.2693 10.6047
1 12.7697 22.0633 9.79631
1 11.9988 21.2558 9.80149
1 13.5732 22.063 10.6047
1 14.3669 21.2693 10.6047
1 14.2858 22.0523 9.78469
1 13.5395 21.271 9.81514
1 15 20.4756 10.6047
1 15.7937 19.6819 10.6047
1 15.8225 20.4882 9.79558
1 15.0597 19.6857 9.77927
1 16.5874 20.4756 10.6047
1 17.3811 19.6819 10.6047
1 17.3746 20.4681 9.83127
1 16.6037 19.6922 9.79319
1 18.1748 20.4756 10.6047
1 18.9685 19.6819 10.6047
1 18.9582 20.467 9.8023
1 18.1687 19.6813 9.81562
1 19.7622 20.4756 10.6047
1 20.5559 19.6819 10.6047
1 20.5496 20.4804 9.80578
1 19.7415 19.6863 9.81006
1 21.3496 20.4756 10.6047
1 22.1433 19.6819 10.6047
1 22.14 20.4623 9.82392
1 21.3509 19.6769 9.78865
1 22.937 20.4756 10.6047
1 23.7307 19.6819 10.6047
1 23.7268 20.4925 9.80437
1 22.9326 19.6851 9.82054
1 24.5244 20.4756 10.6047
1 25.3181 19.6819 10.6047
1 25.3216 20.5087 9.83139
1 24.5094 19.7036 9.82577
1 26.1118 20.4756 10.6047
1 26.9055 19.6819 10.6047
1 26.9035 20.4656 9.8163
1 26.0982 19.6824 9.8249
1 27.6992 20.4756 10.6047
1 28.4929 19.6819 10.6047
1 28.4846 20.4789 9.81594
1 27.6948 19.6973 9.81366
1 29.2866 20.4756 10.6047
1 0.08031 19.6819 10.6047
1 0.0681989 20.4849 9.80849
1 29.2599 19.6852 9.80698
1 0.874011 20.4756 10.6047
1 1.66771 19.6819 10.6047
1 1.68095 20.484 9.81174
1 0.876891 19.7001 9.8202
1 2.46141 20.4756 10.6047
1 3.25511 19.6819 10.6047
1 3.24644 20.4828 9.80282
1 2.43918 19.6892 9.80454
1 4.04881 20.4756 10.6047
1 4.84251 19.6819 10.6047
1 4.85069 20.4699 9.81472
1 4.04276 19.6504 9.80322
1 5.63621 20.4756 10.6047
1 6.42991 19.6819 10.6047
1 6.43357 20.4769 9.8189
1 5.64139 19.6822 9.80651
1 7.22361 20.4756 10.6047
1 8.01732 19.6819 10.6047
1 8.03672 20.4892 9.79355
1 7.22957 19.6884 9.79439
1 8.81102 20.4756 10.6047
1 9.60472 19.6819 10.6047
1 9.587 20.482 9.81973
1 8.80666 19.6699 9.8038
1 10.3984 20.4756 10.6047
1 11.1921 19.6819 10.6047
1 11.1837 20.4872 9.8196
1 10.4121 19.6878 9.81999
1 11.9858 20.4756 10.6047
1 12.7795 19.6819 10.6047
1 12.7499 20.4648 9.81312
1 11.9681 19.677 9.81459
1 13.5732 20.4756 10.6047
1 14.3669 19.6819 10.6047
1 14.2892 20.5016 9.77596
1 13.5641 19.6906 9.80559
1 15 18.8882 10.6047
1 15.7937 18.0945 10.6047
1 15.8188 18.9114 9.79023
1 15.082 18.0896 9.76882
1 16.5874 18.8882 10.6047
1 17.3811 18.0945 10.6047
1 17.3745 18.9024 9.8052
1 16.5785 18.1188 9.81734
1 18.1748 18.8882 10.6047
1 18.9685 18.0945 10.6047
1 18.9764 18.8944 9.82063
1 18.1428 18.1053 9.8047
1 19.7622 18.8882 10.6047
1 20.5559 18.0945 10.6047
1 20.557 18.8931 9.8198
1 19.7583 18.0824 9.80365
1 21.3496 18.8882 10.6047
1 22.1433 18.0945 10.6047
1 22.1357 18.8923 9.82169
1 21.3443 18.0941 9.8146
1 22.937 18.8882 10.6047
1 23.7307 18.0945 10.6047
1 23.7296 18.8794 9.8075
1 22.9408 18.083 9.83197
1 24.5244 18.8882 10.6047
1 25.3181 18.0945 10.6047
1 25.3026 18.8946 9.7925
1 24.5335 18.0884 9.81725
1 26.1118 18.8882 10.6047
1 26.9055 18.0945 10.6047
1 26.8984 18.9245 9.79565
1 26.1179 18.1041 9.80035
1 27.6992 18.8882 10.6047
1 28.4929 18.0945 10.6047
1 28.4766 18.8733 9.83416
1 27.6585 18.1108 9.81241
1 29.2866 18.8882 10.6047
1 0.08031 18.0945 10.6047
1 0.0596559 18.881 9.81779
1 29.2962 18.0648 9.84321
1 0.874011 18.8882 10.6047
1 1.66771 18.0945 10.6047
1 1.67615 18.8923 9.80977
1 0.861683 18.1245 9.8115
1 2.46141 18.8882 10.6047
1 3.25511 18.0945 10.6047
1 3.24507 18.8747 9.79619
1 2.44857 18.1074 9.79976
1 4.04881 18.8882 10.6047
1 4.84251 18.0945 10.6047
1 4.86391 18.8816 9.81946
1 4.05192 18.1144 9.80683
1 5.63621 18.8882 10.6047
1 6.42991 18.0945 10.6047
1 6.4236 18.8762 9.80457
1 5.63511 18.0897 9.82158
1 7.22361 18.8882 10.6047
1 8.01732 18.0945 10.6047
1 8.00798 18.9073 9.78784
1 7.23681 18.1083 9.8124
1 8.81102 18.8882 10.6047
1 9.60472 18.0945 10.6047
1 9.59471 18.8819 9.81675
1 8.78465 18.0998 9.81222
1 10.3984 18.8882 10.6047
1 11.1921 18.0945 10.6047
1 11.1988 18.8933 9.79051
1 10.3874 18.0905 9.81718
1 11.9858 18.8882 10.6047
1 12.7795 18.0945 10.6047
1 12.7636 18.8925 9.8132
1 11.9922 18.099 9.82764
1 13.5732 18.8882 10.6047
1 14.3669 18.0945 10.6047
1 14.2978 18.8884 9.77591
1 13.5394 18.0819 9.80539
1 15 17.3008 10.6047
1 15.7937 16.5071 10.6047
1 15.8422 17.3399 9.7921
1 15.0593 16.4959 9.80784
1 16.5874 17.3008 10.6047
1 17.3811 16.5071 10.6047
1 17.3881 17.297 9.80795
1 16.598 16.4827 9.79568
1 18.1748 17.3008 10.6047
1 18.9685 16.5071 10.6047
1 18.9691 17.3069 9.82821
1 18.178 16.5 9.80322
1 19.7622 17.3008 10.6047
1 20.5559 16.5071 10.6047
1 20.5661 17.2832 9.81195
1 19.7816 16.4906 9.80549
1 21.3496 17.3008 10.6047
1 22.1433 16.5071 10.6047
1 22.1565 17.2904 9.82618
1 21.377 16.5058 9.82543
1 22.937 17.3008 10.6047
1 23.7307 16.5071 10.6047
1 23.7489 17.3157 9.79391
1 22.9619 16.4916 9.82188
1 24.5244 17.3008 10.6047
1 25.3181 16.5071 10.6047
1 25.3307 17.3009 9.80956
1 24.5173 16.4888 9.80689
1 26.1118 17.3008 10.6047
1 26.9055 16.5071 10.6047
1 26.9066 17.2779 9.8083
1 26.105 16.5091 9.82024
1 27.6992 17.3008 10.6047
1 28.4929 16.5071 10.6047
1 28.5001 17.2723 9.83437
1 27.6865 16.5207 9.82967
1 29.2866 17.3008 10.6047
1 0.08031 16.5071 10.6047
1 0.0830292 17.2794 9.82542
1 29.2677 16.4937 9.83354
1 0.874011 17.3008 10.6047
1 1.66771 16.5071 10.6047
1 1.65302 17.3297 9.82459
1 0.873332 16.5095 9.82476
1 2.46141 17.3008 10.6047
1 3.25511 16.5071 10.6047
1 3.27151 17.3165 9.7981
1 2.48545 16.4877 9.79263
1 4.04881 17.3008 10.6047
1 4.84251 16.5071 10.6047
1 4.81965 17.3295 9.80673
1 4.03317 16.499 9.81647
1 5.63621 17.3008 10.6047
1 6.42991 16.5071 10.6047
1 6.43553 17.3408 9.84443
1 5.62156 16.5248 9.81033
1 7.22361 17.3008 10.6047
1 8.01732 16.5071 10.6047
1 8.01886 17.3078 9.80474
1 7.1926 16.4977 9.82882
1 8.81102 17.3008 10.6047
1 9.60472 16.5071 10.6047
1 9.58356 17.3236 9.81532
1 8.81097 16.5027 9.80778
1 10.3984 17.3008 10.6047
1 11.1921 16.5071 10.6047
1 11.1964 17.3203 9.81942
1 10.3942 16.5517 9.82372
1 11.9858 17.3008 10.6047
1 12.7795 16.5071 10.6047
1 12.7711 17.3053 9.80237
1 11.9805 16.5085 9.81039
1 13.5732 17.3008 10.6047
1 14.3669 16.5071 10.6047
1 14.3076 17.3017 9.77629
1 13.5596 16.5141 9.78188
1 15 15.7134 10.6047
1 15.7937 14.9197 10.6047
1 15.8442 15.6875 9.79843
1 15.0782 14.9426 9.77623
1 16.5874 15.7134 10.6047
1 17.3811 14.9197 10.6047
1 17.3923 15.7106 9.80567
1 16.6354 14.9048 9.79244
1 18.1748 15.7134 10.6047
1 18.9685 14.9197 10.6047
1 18.9879 15.6893 9.79038
1 18.1625 14.9212 9.82531
1 19.7622 15.7134 10.6047
1 20.5559 14.9197 10.6047
1 20.5559 15.7193 9.80403
1 19.7667 14.9077 9.81332
1 21.3496 15.7134 10.6047
1 22.1433 14.9197 10.6047
1 22.1273 15.7049 9.82259
1 21.3608 14.9463 9.83041
1 22.937 15.7134 10.6047
1 23.7307 14.9197 10.6047
1 23.7326 15.723 9.84524
1 22.9254 14.9161 9.80439
1 24.5244 15.7134 10.6047
1 25.3181 14.9197 10.6047
1 25.3024 15.7031 9.80327
1 24.5591 14.9089 9.82026
1 26.1118 15.7134 10.6047
1 26.9055 14.9197 10.6047
1 26.9013 15.7079 9.84022
1 26.1057 14.92 9.81817
1 27.6992 15.7134 10.6047
1 28.4929 14.9197 10.6047
1 28.4832 15.6794 9.83072
1 27.7023 14.9096 9.84245
1 29.2866 15.7134 10.6047
1 0.08031 14.9197 10.6047
1 0.0925934 15.7173 9.79824
1 29.2944 14.9188 9.82095
1 0.874011 15.7134 10.6047
1 1.66771 14.9197 10.6047
1 1.67919 15.7428 9.79111
1 0.880491 14.9186 9.83525
1 2.46141 15.7134 10.6047
1 3.25511 14.9197 10.6047
1 3.25833 15.7121 9.80647
1 2.45357 14.9516 9.82007
1 4.04881 15.7134 10.6047
1 4.84251 14.9197 10.6047
1 4.83964 15.716 9.8462
1 4.0606 14.9161 9.82038
1 5.63621 15.7134 10.6047
1 6.42991 14.9197 10.6047
1 6.42245 15.7268 9.80122
1 5.64175 14.9192 9.8157
1 7.22361 15.7134 10.6047
1 8.01732 14.9197 10.6047
1 8.00622 15.7039 9.78756
1 7.22258 14.9065 9.80279
1 8.81102 15.7134 10.6047
1 9.60472 14.9197 10.6047
1 9.61222 15.7348 9.79463
1 8.82734 14.8989 9.83201
1 10.3984 15.7134 10.6047
1 11.1921 14.9197 10.6047
1 11.1701 15.7096 9.81926
1 10.3788 14.9397 9.82927
1 11.9858 15.7134 10.6047
1 12.7795 14.9197 10.6047
1 12.7645 15.7461 9.81854
1 11.9785 14.9294 9.83289
1 13.5732 15.7134 10.6047
1 14.3669 14.9197 10.6047
1 14.2888 15.7301 9.80729
1 13.5428 14.9132 9.81715
1 15 14.126 10.6047
1 15.7937 13.3323 10.6047
1 15.8237 14.1235 9.81007
1 15.0521 13.3313 9.80353
1 16.5874 14.126 10.6047
1 17.3811 13.3323 10.6047
1 17.394 14.0943 9.84537
1 16.5879 13.3209 9.82711
1 18.1748 14.126 10.6047
1 18.9685 13.3323 10.6047
1 18.9826 14.1394 9.84207
1 18.2014 13.342 9.82857
1 19.7622 14.126 10.6047
1 20.5559 13.3323 10.6047
1 20.5558 14.1467 9.83161
1 19.7469 13.3196 9.82189
1 21.3496 14.126 10.6047
1 22.1433 13.3323 10.6047
1 22.14 14.1178 9.82074
1 21.3595 13.3395 9.82642
1 22.937 14.126 10.6047
1 23.7307 13.3323 10.6047
1 23.7239 14.1114 9.82077
1 22.927 13.3381 9.82817
1 24.5244 14.126 10.6047
1 25.3181 13.3323 10.6047
1 25.335 14.1174 9.81008
1 24.5266 13.3386 9.81804
1 26.1118 14.126 10.6047
1 26.9055 13.3323 10.6047
1 26.9204 14.1124 9.81352
1 26.1299 13.3281 9.80636
1 27.6992 14.126 10.6047
1 28.4929 13.3323 10.6047
1 28.4918 14.1218 9.83412
1 27.7031 13.305 9.79491
1 29.2866 14.126 10.6047
1 0.08031 13.3323 10.6047
1 0.0784464 14.1125 9.80513
1 29.2411 13.3292 9.79342
1 0.874011 14.126 10.6047
1 1.66771 13.3323 10.6047
1 1.65812 14.1138 9.78977
1 0.876126 13.3456 9.80842
1 2.46141 14.126 10.6047
1 3.25511 13.3323 10.6047
1 3.24705 14.1312 9.8109
1 2.46726 13.3207 9.79098
1 4.04881 14.126 10.6047
1 4.84251 13.3323 10.6047
1 4.83946 14.1137 9.81092
1 4.04642 13.3598 9.83802
1 5.63621 14.126 10.6047
1 6.42991 13.3323 10.6047
1 6.41581 14.0999 9.81502
1 5.62687 13.3537 9.83298
1 7.22361 14.126 10.6047
1 8.01732 13.3323 10.6047
1 8.03634 14.1262 9.81066
1 7.19798 13.3269 9.8132
1 8.81102 14.126 10.6047
1 9.60472 13.3323 10.6047
1 9.62576 14.1357 9.81809
1 8.80454 13.3293 9.78961
1 10.3984 14.126 10.6047
1 11.1921 13.3323 10.6047
1 11.1818 14.1312 9.8424
1 10.3937 13.3353 9.81307
1 11.9858 14.126 10.6047
1 12.7795 13.3323 10.6047
1 12.7833 14.1293 9.81489
1 11.9887 13.3607 9.79396
1 13.5732 14.126 10.6047
1 14.3669 13.3323 10.6047
1 14.2949 14.1591 9.76734
1 13.5484 13.3213 9.78511
1 15 12.5386 10.6047
1 15.7937 11.7449 10.6047
1 15.8328 12.5458 9.79754
1 15.0793 11.7165 9.765
1 16.5874 12.5386 10.6047
1 17.3811 11.7449 10.6047
1 17.387 12.5324 9.80423
1 16.5983 11.7282 9.78172
1 18.1748 12.5386 10.6047
1 18.9685 11.7449 10.6047
1 18.986 12.535 9.77867
1 18.1812 11.7552 9.83093
1 19.7622 12.5386 10.6047
1 20.5559 11.7449 10.6047
1 20.5676 12.5478 9.81672
1 19.7632 11.7391 9.81836
1 21.3496 12.5386 10.6047
1 22.1433 11.7449 10.6047
1 22.139 12.5503 9.82487
1 21.3565 11.7242 9.84669
1 22.937 12.5386 10.6047
1 23.7307 11.7449 10.6047
1 23.7385 12.5398 9.82128
1 22.9407 11.743 9.82374
1 24.5244 12.5386 10.6047
1 25.3181 11.7449 10.6047
1 25.333 12.5497 9.8186
1 24.5425 11.741 9.82752
1 26.1118 12.5386 10.6047
1 26.9055 11.7449 10.6047
1 26.9074 12.5395 9.81932
1 26.104 11.7317 9.79541
1 27.6992 12.5386 10.6047
1 28.4929 11.7449 10.6047
1 28.4776 12.499 9.81497
1 27.6816 11.753 9.79906
1 29.2866 12.5386 10.6047
1 0.08031 11.7449 10.6047
1 0.0866468 12.5496 9.83111
1 29.2977 11.7532 9.82264
1 0.874011 12.5386 10.6047
1 1.66771 11.7449 10.6047
1 1.65873 12.5293 9.79225
1 0.83414 11.7375 9.82192
1 2.46141 12.5386 10.6047
1 3.25511 11.7449 10.6047
1 3.25113 12.5423 9.82369
1 2.4406 11.7326 9.80501
1 4.04881 12.5386 10.6047
1 4.84251 11.7449 10.6047
1 4.84681 12.5299 9.81072
1 4.0651 11.7408 9.8338
1 5.63621 12.5386 10.6047
1 6.42991 11.7449 10.6047
1 6.40908 12.5379 9.80945
1 5.63039 11.7401 9.81235
1 7.22361 12.5386 10.6047
1 8.01732 11.7449 10.6047
1 8.0059 12.5236 9.81788
1 7.22107 11.7362 9.8054
1 8.81102 12.5386 10.6047
1 9.60472 11.7449 10.6047
1 9.59721 12.5487 9.81962
1 8.80176 11.7527 9.82579
1 10.3984 12.5386 10.6047
1 11.1921 11.7449 10.6047
1 11.1951 12.5308 9.79972
1 10.377 11.7693 9.78509
1 11.9858 12.5386 10.6047
1 12.7795 11.7449 10.6047
1 12.7664 12.5203 9.81414
1 11.9571 11.7208 9.82805
1 13.5732 12.5386 10.6047
1 14.3669 11.7449 10.6047
1 14.3197 12.5341 9.79372
1 13.5288 11.7388 9.79226
1 15 10.9512 10.6047
1 15.7937 10.1575 10.6047
1 15.8252 10.925 9.81483
1 15.0549 10.1509 9.75398
1 16.5874 10.9512 10.6047
1 17.3811 10.1575 10.6047
1 17.3959 10.9314 9.80941
1 16.6272 10.1375 9.8038
1 18.1748 10.9512 10.6047
1 18.9685 10.1575 10.6047
1 18.9881 10.9526 9.81137
1 18.1576 10.1479 9.81855
1 19.7622 10.9512 10.6047
1 20.5559 10.1575 10.6047
1 20.5574 10.956 9.81861
1 19.7578 10.1756 9.84292
1 21.3496 10.9512 10.6047
1 22.1433 10.1575 10.6047
1 22.1249 10.9261 9.81433
1 21.3342 10.1353 9.82851
1 22.937 10.9512 10.6047
1 23.7307 10.1575 10.6047
1 23.7395 10.9524 9.81607
1 22.9358 10.1638 9.83387
1 24.5244 10.9512 10.6047
1 25.3181 10.1575 10.6047
1 25.2988 10.9624 9.81461
1 24.5104 10.1635 9.81602
1 26.1118 10.9512 10.6047
1 26.9055 10.1575 10.6047
1 26.88 10.9416 9.79905
1 26.0806 10.1322 9.80947
1 27.6992 10.9512 10.6047
1 28.4929 10.1575 10.6047
1 28.4771 10.9651 9.79789
1 27.6889 10.157 9.81244
1 29.2866 10.9512 10.6047
1 0.08031 10.1575 10.6047
1 0.054712 10.9378 9.83789
1 29.2653 10.1389 9.80222
1 0.874011 10.9512 10.6047
1 1.66771 10.1575 10.6047
1 1.61996 10.9547 9.81669
1 0.853889 10.1338 9.80526
1 2.46141 10.9512 10.6047
1 3.25511 10.1575 10.6047
1 3.28479 10.9544 9.80336
1 2.43511 10.1714 9.82264
1 4.04881 10.9512 10.6047
1 4.84251 10.1575 10.6047
1 4.82883 10.9324 9.83339
1 4.03967 10.1689 9.80935
1 5.63621 10.9512 10.6047
1 6.42991 10.1575 10.6047
1 6.46025 10.9294 9.8251
1 5.63993 10.1674 9.81408
1 7.22361 10.9512 10.6047
1 8.01732 10.1575 10.6047
1 8.00753 10.9357 9.81022
1 7.24063 10.1516 9.8311
1 8.81102 10.9512 10.6047
1 9.60472 10.1575 10.6047
1 9.59991 10.9675 9.82353
1 8.79855 10.1467 9.80858
1 10.3984 10.9512 10.6047
1 11.1921 10.1575 10.6047
1 11.1514 10.9621 9.81316
1 10.4076 10.1327 9.79737
1 11.9858 10.9512 10.6047
1 12.7795 10.1575 10.6047
1 12.746 10.9328 9.80917
1 11.9631 10.148 9.81407
1 13.5732 10.9512 10.6047
1 14.3669 10.1575 10.6047
1 14.3057 10.9489 9.77603
1 13.5683 10.1645 9.80989
1 15 9.36379 10.6047
1 15.7937 8.57009 10.6047
1 15.8154 9.34888 9.78885
1 15.0459 8.56248 9.7927
1 16.5874 9.36379 10.6047
1 17.3811 8.57009 10.6047
1 17.417 9.35107 9.81322
1 16.6134 8.56541 9.81817
1 18.1748 9.36379 10.6047
1 18.9685 8.57009 10.6047
1 18.9827 9.35668 9.82559
1 18.2037 8.55801 9.79007
1 19.7622 9.36379 10.6047
1 20.5559 8.57009 10.6047
1 20.5667 9.36437 9.81467
1 19.7772 8.59588 9.79521
1 21.3496 9.36379 10.6047
1 22.1433 8.57009 10.6047
1 22.1529 9.36988 9.80331
1 21.378 8.59574 9.81636
1 22.937 9.36379 10.6047
1 23.7307 8.57009 10.6047
1 23.7312 9.36744 9.8024
1 22.91 8.58601 9.8
1 24.5244 9.36379 10.6047
1 25.3181 8.57009 10.6047
1 25.3042 9.35381 9.80327
1 24.5164 8.55503 9.81503
1 26.1118 9.36379 10.6047
1 26.9055 8.57009 10.6047
1 26.9162 9.36601 9.79021
1 26.1184 8.59247 9.80903
1 27.6992 9.36379 10.6047
1 28.4929 8.57009 10.6047
1 28.4703 9.38138 9.82318
1 27.6772 8.58555 9.80418
1 29.2866 9.36379 10.6047
1 0.08031 8.57009 10.6047
1 0.0681635 9.34656 9.78186
1 29.2882 8.57173 9.81823
1 0.874011 9.36379 10.6047
1 1.66771 8.57009 10.6047
1 1.65612 9.37969 9.79789
1 0.858361 8.57081 9.81481
1 2.46141 9.36379 10.6047
1 3.25511 8.57009 10.6047
1 3.23869 9.36681 9.81908
1 2.45537 8.58952 9.82846
1 4.04881 9.36379 10.6047
1 4.84251 8.57009 10.6047
1 4.82994 9.40608 9.80919
1 4.04962 8.57156 9.79521
1 5.63621 9.36379 10.6047
1 6.42991 8.57009 10.6047
1 6.42944 9.34328 9.80625
1 5.62135 8.59203 9.78687
1 7.22361 9.36379 10.6047
1 8.01732 8.57009 10.6047
1 8.03643 9.36497 9.80871
1 7.22203 8.55888 9.80901
1 8.81102 9.36379 10.6047
1 9.60472 8.57009 10.6047
1 9.61518 9.35701 9.81873
1 8.82122 8.56863 9.82273
1 10.3984 9.36379 10.6047
1 11.1921 8.57009 10.6047
1 11.1845 9.35704 9.80682
1 10.4078 8.57397 9.79885
1 11.9858 9.36379 10.6047
1 12.7795 8.57009 10.6047
1 12.7659 9.36234 9.81027
1 11.9586 8.56688 9.80239
1 13.5732 9.36379 10.6047
1 14.3669 8.57009 10.6047
1 14.3255 9.36884 9.77153
1 13.5418 8.57148 9.81032
1 15 7.77639 10.6047
1 15.7937 6.98268 10.6047
1 15.7754 7.79689 9.81984
1 15.0561 6.98407 9.7503
1 16.5874 7.77639 10.6047
1 17.3811 6.98268 10.6047
1 17.3913 7.76206 9.80451
1 16.5764 6.99983 9.80051
1 18.1748 7.77639 10.6047
1 18.9685 6.98268 10.6047
1 19.0088 7.78789 9.80279
1 18.2009 6.99161 9.82061
1 19.7622 7.77639 10.6047
1 20.5559 6.98268 10.6047
1 20.5856 7.78681 9.80505
1 19.7818 7.02694 9.82934
1 21.3496 7.77639 10.6047
1 22.1433 6.98268 10.6047
1 22.1272 7.80112 9.80374
1 21.3512 7.00411 9.80286
1 22.937 7.77639 10.6047
1 23.7307 6.98268 10.6047
1 23.7179 7.77723 9.80531
1 22.9239 6.95326 9.80131
1 24.5244 7.77639 10.6047
1 25.3181 6.98268 10.6047
1 25.3096 7.74916 9.79698
1 24.5434 6.98939 9.8057
1 26.1118 7.77639 10.6047
1 26.9055 6.98268 10.6047
1 26.91 7.79322 9.81004
1 26.1286 6.97412 9.81069
1 27.6992 7.77639 10.6047
1 28.4929 6.98268 10.6047
1 28.5052 7.77425 9.8208
1 27.6824 6.97938 9.80136
1 29.2866 7.77639 10.6047
1 0.08031 6.98268 10.6047
1 0.0723847 7.78339 9.80654
1 29.2929 6.97596 9.81782
1 0.874011 7.77639 10.6047
1 1.66771 6.98268 10.6047
1 1.68109 7.79711 9.81112
1 0.856845 6.98494 9.78152
1 2.46141 7.77639 10.6047
1 3.25511 6.98268 10.6047
1 3.26645 7.78803 9.82298
1 2.46954 6.97662 9.8087
1 4.04881 7.77639 10.6047
1 4.84251 6.98268 10.6047
1 4.82804 7.7816 9.80959
1 4.04323 6.97522 9.7843
1 5.63621 7.77639 10.6047
1 6.42991 6.98268 10.6047
1 6.4009 7.75603 9.78029
1 5.63124 6.9795 9.82502
1 7.22361 7.77639 10.6047
1 8.01732 6.98268 10.6047
1 8.03464 7.77592 9.82302
1 7.25473 6.97019 9.80776
1 8.81102 7.77639 10.6047
1 9.60472 6.98268 10.6047
1 9.59097 7.78058 9.79445
1 8.80161 6.97663 9.81196
1 10.3984 7.77639 10.6047
1 11.1921 6.98268 10.6047
1 11.1847 7.7841 9.83995
1 10.3742 6.99602 9.83499
1 11.9858 7.77639 10.6047
1 12.7795 6.98268 10.6047
1 12.7707 7.79144 9.79863
1 11.9989 7.01828 9.79524
1 13.5732 7.77639 10.6047
1 14.3669 6.98268 10.6047
1 14.29 7.78554 9.78387
1 13.5446 6.97718 9.81014
1 15 6.18898 10.6047
1 15.7937 5.39528 10.6047
1 15.8217 6.1836 9.78847
1 15.0773 5.41743 9.77588
1 16.5874 6.18898 10.6047
1 17.3811 5.39528 10.6047
1 17.3764 6.20357 9.80826
1 16.6014 5.40935 9.79771
1 18.1748 6.18898 10.6047
1 18.9685 5.39528 10.6047
1 18.9818 6.20672 9.79947
1 18.1751 5.39882 9.82858
1 19.7622 6.18898 10.6047
1 20.5559 5.39528 10.6047
1 20.5593 6.20536 9.84317
1 19.7774 5.40376 9.81637
1 21.3496 6.18898 10.6047
1 22.1433 5.39528 10.6047
1 22.1523 6.17611 9.81017