12976
Atoms. Timestep: 4000000
1 30 7.10543e-15 15.2446
1 0.793701 29.2063 15.2446
1 0.819294 29.9399 14.4138
1 0.0882337 29.186 14.4068
1 1.5874 7.10543e-15 15.2446
1 2.3811 29.2063 15.2446
1 2.40333 29.9349 14.415
1 1.60504 29.2243 14.4582
1 3.1748 7.10543e-15 15.2446
1 3.9685 29.2063 15.2446
1 3.96958 29.9153 14.4182
1 3.17519 29.1579 14.4329
1 4.7622 7.10543e-15 15.2446
1 5.5559 29.2063 15.2446
1 5.54653 29.9364 14.4143
1 4.76189 29.1815 14.4535
1 6.3496 7.10543e-15 15.2446
1 7.1433 29.2063 15.2446
1 7.15308 29.9477 14.4431
1 6.3508 29.1852 14.4289
1 7.93701 7.10543e-15 15.2446
1 8.73071 29.2063 15.2446
1 8.70331 29.9408 14.4513
1 7.93305 29.153 14.4737
1 9.52441 7.10543e-15 15.2446
1 10.3181 29.2063 15.2446
1 10.2962 29.9118 14.4304
1 9.51569 29.1684 14.4417
1 11.1118 7.10543e-15 15.2446
1 11.9055 29.2063 15.2446
1 11.899 29.9506 14.4302
1 11.1215 29.1891 14.4565
1 12.6992 7.10543e-15 15.2446
1 13.4929 29.2063 15.2446
1 13.5064 29.9092 14.3946
1 12.7209 29.2079 14.4421
1 14.2866 7.10543e-15 15.2446
1 15.0803 29.2063 15.2446
1 15.0672 29.931 14.4211
1 14.2898 29.1996 14.4364
1 15.874 7.10543e-15 15.2446
1 16.6677 29.2063 15.2446
1 16.6904 29.9111 14.4083
1 15.8703 29.1711 14.426
1 17.4614 7.10543e-15 15.2446
1 18.2551 29.2063 15.2446
1 18.2411 29.9382 14.4253
1 17.4676 29.1572 14.4643
1 19.0488 7.10543e-15 15.2446
1 19.8425 29.2063 15.2446
1 19.8329 29.9378 14.4162
1 19.0057 29.1653 14.4445
1 20.6362 7.10543e-15 15.2446
1 21.4299 29.2063 15.2446
1 21.4402 29.9632 14.4155
1 20.6419 29.1842 14.4818
1 22.2236 7.10543e-15 15.2446
1 23.0173 29.2063 15.2446
1 23.0125 29.8808 14.411
1 22.2055 29.1639 14.4415
1 23.811 7.10543e-15 15.2446
1 24.6047 29.2063 15.2446
1 24.6217 29.8991 14.427
1 23.8324 29.167 14.4364
1 25.3984 7.10543e-15 15.2446
1 26.1921 29.2063 15.2446
1 26.1649 29.937 14.418
1 25.3869 29.1708 14.4522
1 26.9858 7.10543e-15 15.2446
1 27.7795 29.2063 15.2446
1 27.7611 29.9095 14.4039
1 26.9571 29.1655 14.4373
1 28.5732 7.10543e-15 15.2446
1 29.3669 29.2063 15.2446
1 29.3162 29.9482 14.3745
1 28.5586 29.1543 14.4597
1 30 28.4126 15.2446
1 0.793701 27.6189 15.2446
1 0.834974 28.413 14.4397
1 0.0575083 27.599 14.4016
1 1.5874 28.4126 15.2446
1 2.3811 27.6189 15.2446
1 2.40616 28.3895 14.4429
1 1.57695 27.6185 14.4827
1 3.1748 28.4126 15.2446
1 3.9685 27.6189 15.2446
1 3.95515 28.3795 14.445
1 3.17256 27.6163 14.43
1 4.7622 28.4126 15.2446
1 5.5559 27.6189 15.2446
1 5.55622 28.4087 14.4615
1 4.75386 27.6124 14.4454
1 6.3496 28.4126 15.2446
1 7.1433 27.6189 15.2446
1 7.13745 28.3835 14.4665
1 6.33939 27.629 14.4431
1 7.93701 28.4126 15.2446
1 8.73071 27.6189 15.2446
1 8.70395 28.3899 14.4542
1 7.93598 27.5998 14.452
1 9.52441 28.4126 15.2446
1 10.3181 27.6189 15.2446
1 10.3319 28.4068 14.4493
1 9.52781 27.6062 14.4587
1 11.1118 28.4126 15.2446
1 11.9055 27.6189 15.2446
1 11.928 28.3912 14.4275
1 11.1329 27.613 14.4592
1 12.6992 28.4126 15.2446
1 13.4929 27.6189 15.2446
1 13.5011 28.404 14.4452
1 12.701 27.5774 14.4606
1 14.2866 28.4126 15.2446
1 15.0803 27.6189 15.2446
1 15.0868 28.3709 14.4115
1 14.2641 27.6079 14.4343
1 15.874 28.4126 15.2446
1 16.6677 27.6189 15.2446
1 16.6538 28.4017 14.4331
1 15.8753 27.6095 14.4222
1 17.4614 28.4126 15.2446
1 18.2551 27.6189 15.2446
1 18.2433 28.3982 14.426
1 17.447 27.5987 14.4539
1 19.0488 28.4126 15.2446
1 19.8425 27.6189 15.2446
1 19.8397 28.4001 14.4599
1 19.0451 27.6082 14.4454
1 20.6362 28.4126 15.2446
1 21.4299 27.6189 15.2446
1 21.456 28.3904 14.4445
1 20.6273 27.6056 14.4487
1 22.2236 28.4126 15.2446
1 23.0173 27.6189 15.2446
1 23.0219 28.3857 14.431
1 22.2116 27.6044 14.4483
1 23.811 28.4126 15.2446
1 24.6047 27.6189 15.2446
1 24.6111 28.4071 14.4256
1 23.8121 27.6064 14.4271
1 25.3984 28.4126 15.2446
1 26.1921 27.6189 15.2446
1 26.1758 28.3827 14.4443
1 25.395 27.6168 14.4411
1 26.9858 28.4126 15.2446
1 27.7795 27.6189 15.2446
1 27.7534 28.388 14.4485
1 26.9883 27.6055 14.4456
1 28.5732 28.4126 15.2446
1 29.3669 27.6189 15.2446
1 29.3095 28.4066 14.4181
1 28.5424 27.6042 14.4447
1 30 26.8252 15.2446
1 0.793701 26.0315 15.2446
1 0.812446 26.8298 14.4424
1 0.0640866 26.0312 14.3956
1 1.5874 26.8252 15.2446
1 2.3811 26.0315 15.2446
1 2.37466 26.8452 14.4572
1 1.60833 26.0328 14.4282
1 3.1748 26.8252 15.2446
1 3.9685 26.0315 15.2446
1 3.96184 26.8263 14.4561
1 3.17644 26.0366 14.4414
1 4.7622 26.8252 15.2446
1 5.5559 26.0315 15.2446
1 5.5559 26.8514 14.4795
1 4.7538 26.038 14.4372
1 6.3496 26.8252 15.2446
1 7.1433 26.0315 15.2446
1 7.12089 26.8174 14.4766
1 6.33217 26.0357 14.4414
1 7.93701 26.8252 15.2446
1 8.73071 26.0315 15.2446
1 8.72508 26.8222 14.4581
1 7.91394 26.0329 14.4561
1 9.52441 26.8252 15.2446
1 10.3181 26.0315 15.2446
1 10.3051 26.8366 14.4519
1 9.50609 26.038 14.4458
1 11.1118 26.8252 15.2446
1 11.9055 26.0315 15.2446
1 11.9083 26.814 14.4673
1 11.1266 26.0432 14.4552
1 12.6992 26.8252 15.2446
1 13.4929 26.0315 15.2446
1 13.4822 26.8196 14.4704
1 12.7035 26.0155 14.4553
1 14.2866 26.8252 15.2446
1 15.0803 26.0315 15.2446
1 15.05 26.808 14.4629
1 14.271 26.0278 14.4622
1 15.874 26.8252 15.2446
1 16.6677 26.0315 15.2446
1 16.663 26.8002 14.4613
1 15.8762 26.0283 14.4519
1 17.4614 26.8252 15.2446
1 18.2551 26.0315 15.2446
1 18.265 26.8055 14.4257
1 17.4623 26.0079 14.4683
1 19.0488 26.8252 15.2446
1 19.8425 26.0315 15.2446
1 19.8216 26.8252 14.4688
1 19.0657 26.0031 14.4631
1 20.6362 26.8252 15.2446
1 21.4299 26.0315 15.2446
1 21.4193 26.8243 14.4273
1 20.6552 26.0355 14.4562
1 22.2236 26.8252 15.2446
1 23.0173 26.0315 15.2446
1 23.0142 26.8038 14.4508
1 22.2186 26.0308 14.4648
1 23.811 26.8252 15.2446
1 24.6047 26.0315 15.2446
1 24.618 26.8285 14.4467
1 23.803 26.0352 14.4632
1 25.3984 26.8252 15.2446
1 26.1921 26.0315 15.2446
1 26.1848 26.7811 14.447
1 25.3833 26.0237 14.461
1 26.9858 26.8252 15.2446
1 27.7795 26.0315 15.2446
1 27.7692 26.7897 14.4656
1 26.9943 25.9961 14.4711
1 28.5732 26.8252 15.2446
1 29.3669 26.0315 15.2446
1 29.3001 26.819 14.4423
1 28.5581 26.0027 14.4458
1 30 25.2378 15.2446
1 0.793701 24.4441 15.2446
1 0.824445 25.2339 14.4548
1 0.0737215 24.4118 14.4479
1 1.5874 25.2378 15.2446
1 2.3811 24.4441 15.2446
1 2.3664 25.2317 14.4413
1 1.60668 24.4319 14.4657
1 3.1748 25.2378 15.2446
1 3.9685 24.4441 15.2446
1 3.96795 25.273 14.4655
1 3.18584 24.4632 14.4202
1 4.7622 25.2378 15.2446
1 5.5559 24.4441 15.2446
1 5.54084 25.2652 14.4708
1 4.75117 24.451 14.4712
1 6.3496 25.2378 15.2446
1 7.1433 24.4441 15.2446
1 7.1286 25.2394 14.4511
1 6.34966 24.4657 14.4474
1 7.93701 25.2378 15.2446
1 8.73071 24.4441 15.2446
1 8.70384 25.2522 14.4594
1 7.92245 24.4383 14.4571
1 9.52441 25.2378 15.2446
1 10.3181 24.4441 15.2446
1 10.3219 25.242 14.4346
1 9.4972 24.4558 14.4412
1 11.1118 25.2378 15.2446
1 11.9055 24.4441 15.2446
1 11.8993 25.2471 14.4488
1 11.125 24.4412 14.4519
1 12.6992 25.2378 15.2446
1 13.4929 24.4441 15.2446
1 13.5244 25.2286 14.4457
1 12.6922 24.434 14.4495
1 14.2866 25.2378 15.2446
1 15.0803 24.4441 15.2446
1 15.0766 25.2217 14.4428
1 14.3052 24.4145 14.4169
1 15.874 25.2378 15.2446
1 16.6677 24.4441 15.2446
1 16.665 25.2381 14.4629
1 15.9002 24.4456 14.4384
1 17.4614 25.2378 15.2446
1 18.2551 24.4441 15.2446
1 18.2231 25.2166 14.4313
1 17.448 24.4337 14.4302
1 19.0488 25.2378 15.2446
1 19.8425 24.4441 15.2446
1 19.855 25.2304 14.4387
1 19.0511 24.4279 14.4516
1 20.6362 25.2378 15.2446
1 21.4299 24.4441 15.2446
1 21.4403 25.2268 14.4764
1 20.6505 24.4465 14.4421
1 22.2236 25.2378 15.2446
1 23.0173 24.4441 15.2446
1 23.0257 25.2173 14.4465
1 22.2086 24.4198 14.4355
1 23.811 25.2378 15.2446
1 24.6047 24.4441 15.2446
1 24.598 25.2149 14.4331
1 23.8101 24.4174 14.4446
1 25.3984 25.2378 15.2446
1 26.1921 24.4441 15.2446
1 26.1711 25.2424 14.4568
1 25.3981 24.4292 14.4548
1 26.9858 25.2378 15.2446
1 27.7795 24.4441 15.2446
1 27.7764 25.2251 14.4282
1 26.9582 24.473 14.4583
1 28.5732 25.2378 15.2446
1 29.3669 24.4441 15.2446
1 29.3078 25.2159 14.408
1 28.5224 24.4194 14.4357
1 30 23.6504 15.2446
1 0.793701 22.8567 15.2446
1 0.848061 23.6459 14.44
1 0.0803203 22.843 14.4018
1 1.5874 23.6504 15.2446
1 2.3811 22.8567 15.2446
1 2.38709 23.6652 14.4451
1 1.60624 22.8611 14.4699
1 3.1748 23.6504 15.2446
1 3.9685 22.8567 15.2446
1 3.97423 23.6594 14.4601
1 3.16324 22.8659 14.4605
1 4.7622 23.6504 15.2446
1 5.5559 22.8567 15.2446
1 5.53697 23.6733 14.4467
1 4.75574 22.8509 14.4504
1 6.3496 23.6504 15.2446
1 7.1433 22.8567 15.2446
1 7.15245 23.6753 14.4581
1 6.34206 22.8644 14.4622
1 7.93701 23.6504 15.2446
1 8.73071 22.8567 15.2446
1 8.70179 23.6236 14.4607
1 7.93446 22.8528 14.4567
1 9.52441 23.6504 15.2446
1 10.3181 22.8567 15.2446
1 10.2882 23.6674 14.4754
1 9.54118 22.8486 14.4227
1 11.1118 23.6504 15.2446
1 11.9055 22.8567 15.2446
1 11.9106 23.6391 14.4459
1 11.1003 22.8727 14.4797
1 12.6992 23.6504 15.2446
1 13.4929 22.8567 15.2446
1 13.4932 23.6332 14.4501
1 12.7256 22.834 14.4518
1 14.2866 23.6504 15.2446
1 15.0803 22.8567 15.2446
1 15.079 23.6636 14.4398
1 14.3143 22.8419 14.4428
1 15.874 23.6504 15.2446
1 16.6677 22.8567 15.2446
1 16.6789 23.644 14.44
1 15.8817 22.8462 14.438
1 17.4614 23.6504 15.2446
1 18.2551 22.8567 15.2446
1 18.2589 23.6443 14.4557
1 17.4585 22.8638 14.4709
1 19.0488 23.6504 15.2446
1 19.8425 22.8567 15.2446
1 19.85 23.653 14.457
1 19.0544 22.8747 14.4736
1 20.6362 23.6504 15.2446
1 21.4299 22.8567 15.2446
1 21.4181 23.6215 14.4521
1 20.6413 22.8422 14.4736
1 22.2236 23.6504 15.2446
1 23.0173 22.8567 15.2446
1 23.0287 23.6763 14.4408
1 22.2344 22.8604 14.4841
1 23.811 23.6504 15.2446
1 24.6047 22.8567 15.2446
1 24.6273 23.6209 14.4573
1 23.8297 22.8206 14.4318
1 25.3984 23.6504 15.2446
1 26.1921 22.8567 15.2446
1 26.1933 23.6536 14.484
1 25.4215 22.837 14.4761
1 26.9858 23.6504 15.2446
1 27.7795 22.8567 15.2446
1 27.7502 23.6611 14.4185
1 26.9755 22.8437 14.4539
1 28.5732 23.6504 15.2446
1 29.3669 22.8567 15.2446
1 29.2894 23.6342 14.444
1 28.5186 22.8782 14.4357
1 30 22.063 15.2446
1 0.793701 21.2693 15.2446
1 0.84197 22.063 14.4401
1 0.0579944 21.2942 14.4375
1 1.5874 22.063 15.2446
1 2.3811 21.2693 15.2446
1 2.38636 22.0752 14.4469
1 1.60806 21.2944 14.4392
1 3.1748 22.063 15.2446
1 3.9685 21.2693 15.2446
1 3.98922 22.0719 14.4564
1 3.16351 21.3077 14.4566
1 4.7622 22.063 15.2446
1 5.5559 21.2693 15.2446
1 5.55734 22.035 14.4523
1 4.75276 21.2869 14.4374
1 6.3496 22.063 15.2446
1 7.1433 21.2693 15.2446
1 7.13897 22.055 14.4621
1 6.34942 21.2428 14.4496
1 7.93701 22.063 15.2446
1 8.73071 21.2693 15.2446
1 8.71851 22.0638 14.4558
1 7.94277 21.2566 14.4519
1 9.52441 22.063 15.2446
1 10.3181 21.2693 15.2446
1 10.3258 22.0462 14.4293
1 9.52681 21.2516 14.4325
1 11.1118 22.063 15.2446
1 11.9055 21.2693 15.2446
1 11.8892 22.0526 14.4603
1 11.1186 21.2662 14.4431
1 12.6992 22.063 15.2446
1 13.4929 21.2693 15.2446
1 13.5092 22.0489 14.4588
1 12.6807 21.2603 14.4621
1 14.2866 22.063 15.2446
1 15.0803 21.2693 15.2446
1 15.0881 22.0488 14.4483
1 14.282 21.2725 14.4567
1 15.874 22.063 15.2446
1 16.6677 21.2693 15.2446
1 16.6619 22.0451 14.4457
1 15.8851 21.2529 14.4337
1 17.4614 22.063 15.2446
1 18.2551 21.2693 15.2446
1 18.2617 22.0617 14.4629
1 17.4476 21.2589 14.4448
1 19.0488 22.063 15.2446
1 19.8425 21.2693 15.2446
1 19.8604 22.0564 14.4318
1 19.0499 21.2432 14.4651
1 20.6362 22.063 15.2446
1 21.4299 21.2693 15.2446
1 21.4481 22.076 14.4492
1 20.6514 21.247 14.4789
1 22.2236 22.063 15.2446
1 23.0173 21.2693 15.2446
1 23.0347 22.0646 14.4917
1 22.2368 21.2349 14.4767
1 23.811 22.063 15.2446
1 24.6047 21.2693 15.2446
1 24.595 22.0663 14.4291
1 23.8192 21.271 14.4611
1 25.3984 22.063 15.2446
1 26.1921 21.2693 15.2446
1 26.1964 22.0282 14.4319
1 25.3857 21.2734 14.4415
1 26.9858 22.063 15.2446
1 27.7795 21.2693 15.2446
1 27.7614 22.0584 14.4592
1 26.9966 21.2702 14.4317
1 28.5732 22.063 15.2446
1 29.3669 21.2693 15.2446
1 29.3006 22.0903 14.425
1 28.5584 21.27 14.4206
1 30 20.4756 15.2446
1 0.793701 19.6819 15.2446
1 0.821109 20.4993 14.4486
1 0.0498963 19.702 14.3784
1 1.5874 20.4756 15.2446
1 2.3811 19.6819 15.2446
1 2.38913 20.4885 14.4403
1 1.59399 19.6952 14.4445
1 3.1748 20.4756 15.2446
1 3.9685 19.6819 15.2446
1 3.99312 20.4909 14.4333
1 3.1674 19.6732 14.4551
1 4.7622 20.4756 15.2446
1 5.5559 19.6819 15.2446
1 5.56071 20.4683 14.4412
1 4.76515 19.6805 14.4471
1 6.3496 20.4756 15.2446
1 7.1433 19.6819 15.2446
1 7.14952 20.46 14.4477
1 6.36904 19.6943 14.454
1 7.93701 20.4756 15.2446
1 8.73071 19.6819 15.2446
1 8.72205 20.4897 14.4497
1 7.93676 19.6871 14.4584
1 9.52441 20.4756 15.2446
1 10.3181 19.6819 15.2446
1 10.314 20.4656 14.4672
1 9.54479 19.6625 14.465
1 11.1118 20.4756 15.2446
1 11.9055 19.6819 15.2446
1 11.9165 20.4603 14.4396
1 11.1064 19.6865 14.4481
1 12.6992 20.4756 15.2446
1 13.4929 19.6819 15.2446
1 13.4765 20.4923 14.4382
1 12.7074 19.6912 14.4247
1 14.2866 20.4756 15.2446
1 15.0803 19.6819 15.2446
1 15.0967 20.4783 14.4228
1 14.298 19.7008 14.4429
1 15.874 20.4756 15.2446
1 16.6677 19.6819 15.2446
1 16.6757 20.4776 14.4399
1 15.8884 19.6589 14.4448
1 17.4614 20.4756 15.2446
1 18.2551 19.6819 15.2446
1 18.2441 20.4583 14.4708
1 17.4512 19.7053 14.418
1 19.0488 20.4756 15.2446
1 19.8425 19.6819 15.2446
1 19.8333 20.4733 14.4351
1 19.0258 19.6833 14.4475
1 20.6362 20.4756 15.2446
1 21.4299 19.6819 15.2446
1 21.4045 20.4503 14.4759
1 20.6473 19.684 14.4653
1 22.2236 20.4756 15.2446
1 23.0173 19.6819 15.2446
1 23.0466 20.482 14.4572
1 22.2275 19.6763 14.4592
1 23.811 20.4756 15.2446
1 24.6047 19.6819 15.2446
1 24.621 20.4907 14.4663
1 23.8114 19.7018 14.4697
1 25.3984 20.4756 15.2446
1 26.1921 19.6819 15.2446
1 26.1803 20.486 14.4564
1 25.417 19.6958 14.466
1 26.9858 20.4756 15.2446
1 27.7795 19.6819 15.2446
1 27.7832 20.4454 14.4313
1 26.9704 19.6599 14.4385
1 28.5732 20.4756 15.2446
1 29.3669 19.6819 15.2446
1 29.3365 20.4808 14.4075
1 28.5344 19.7081 14.452
1 30 18.8882 15.2446
1 0.793701 18.0945 15.2446
1 0.820777 18.8579 14.4722
1 0.0261286 18.0857 14.4123
1 1.5874 18.8882 15.2446
1 2.3811 18.0945 15.2446
1 2.3798 18.9 14.452
1 1.59957 18.1307 14.4333
1 3.1748 18.8882 15.2446
1 3.9685 18.0945 15.2446
1 3.97677 18.8866 14.4638
1 3.18908 18.1206 14.4647
1 4.7622 18.8882 15.2446
1 5.5559 18.0945 15.2446
1 5.55617 18.8788 14.4536
1 4.76345 18.1076 14.4827
1 6.3496 18.8882 15.2446
1 7.1433 18.0945 15.2446
1 7.12923 18.9107 14.4414
1 6.32466 18.081 14.49
1 7.93701 18.8882 15.2446
1 8.73071 18.0945 15.2446
1 8.70925 18.8936 14.4298
1 7.9345 18.0927 14.4446
1 9.52441 18.8882 15.2446
1 10.3181 18.0945 15.2446
1 10.3093 18.8887 14.4593
1 9.53191 18.1062 14.4362
1 11.1118 18.8882 15.2446
1 11.9055 18.0945 15.2446
1 11.9194 18.8956 14.4485
1 11.1374 18.0863 14.4401
1 12.6992 18.8882 15.2446
1 13.4929 18.0945 15.2446
1 13.4913 18.9172 14.4348
1 12.698 18.103 14.4283
1 14.2866 18.8882 15.2446
1 15.0803 18.0945 15.2446
1 15.0989 18.8894 14.4456
1 14.3071 18.105 14.4588
1 15.874 18.8882 15.2446
1 16.6677 18.0945 15.2446
1 16.6731 18.9099 14.4495
1 15.8788 18.0766 14.4417
1 17.4614 18.8882 15.2446
1 18.2551 18.0945 15.2446
1 18.2328 18.8979 14.4618
1 17.4423 18.1 14.4642
1 19.0488 18.8882 15.2446
1 19.8425 18.0945 15.2446
1 19.8746 18.8987 14.4627
1 19.0508 18.1064 14.465
1 20.6362 18.8882 15.2446
1 21.4299 18.0945 15.2446
1 21.4512 18.8795 14.4528
1 20.6287 18.0774 14.4516
1 22.2236 18.8882 15.2446
1 23.0173 18.0945 15.2446
1 23.0184 18.8747 14.4696
1 22.2367 18.0713 14.4777
1 23.811 18.8882 15.2446
1 24.6047 18.0945 15.2446
1 24.5929 18.8754 14.4687
1 23.7934 18.0827 14.4752
1 25.3984 18.8882 15.2446
1 26.1921 18.0945 15.2446
1 26.165 18.892 14.4482
1 25.3863 18.0872 14.4519
1 26.9858 18.8882 15.2446
1 27.7795 18.0945 15.2446
1 27.7637 18.8764 14.4598
1 26.95 18.0982 14.4389
1 28.5732 18.8882 15.2446
1 29.3669 18.0945 15.2446
1 29.2962 18.8976 14.4277
1 28.5464 18.1018 14.4665
1 30 17.3008 15.2446
1 0.793701 16.5071 15.2446
1 0.820309 17.3248 14.4716
1 0.0702743 16.5204 14.4272
1 1.5874 17.3008 15.2446
1 2.3811 16.5071 15.2446
1 2.38607 17.3155 14.4475
1 1.61351 16.4933 14.4468
1 3.1748 17.3008 15.2446
1 3.9685 16.5071 15.2446
1 3.97409 17.3314 14.4443
1 3.18013 16.5067 14.4276
1 4.7622 17.3008 15.2446
1 5.5559 16.5071 15.2446
1 5.53485 17.329 14.4548
1 4.75309 16.5186 14.4641
1 6.3496 17.3008 15.2446
1 7.1433 16.5071 15.2446
1 7.13726 17.3199 14.4391
1 6.34085 16.513 14.4516
1 7.93701 17.3008 15.2446
1 8.73071 16.5071 15.2446
1 8.72817 17.3198 14.4667
1 7.93837 16.506 14.4606
1 9.52441 17.3008 15.2446
1 10.3181 16.5071 15.2446
1 10.3114 17.3228 14.4582
1 9.52529 16.5386 14.4287
1 11.1118 17.3008 15.2446
1 11.9055 16.5071 15.2446
1 11.8949 17.2924 14.4666
1 11.0932 16.529 14.4634
1 12.6992 17.3008 15.2446
1 13.4929 16.5071 15.2446
1 13.4966 17.2988 14.445
1 12.7174 16.5048 14.4525
1 14.2866 17.3008 15.2446
1 15.0803 16.5071 15.2446
1 15.0666 17.33 14.4327
1 14.2855 16.5055 14.4716
1 15.874 17.3008 15.2446
1 16.6677 16.5071 15.2446
1 16.6628 17.2899 14.4678
1 15.8588 16.4967 14.4699
1 17.4614 17.3008 15.2446
1 18.2551 16.5071 15.2446
1 18.2772 17.3114 14.4622
1 17.4508 16.4912 14.4626
1 19.0488 17.3008 15.2446
1 19.8425 16.5071 15.2446
1 19.8621 17.2838 14.4487
1 19.0635 16.4973 14.4251
1 20.6362 17.3008 15.2446
1 21.4299 16.5071 15.2446
1 21.4252 17.2788 14.4762
1 20.6698 16.4801 14.4589
1 22.2236 17.3008 15.2446
1 23.0173 16.5071 15.2446
1 23.0264 17.2818 14.4477
1 22.2063 16.4924 14.4729
1 23.811 17.3008 15.2446
1 24.6047 16.5071 15.2446
1 24.598 17.2875 14.4552
1 23.7993 16.4769 14.4439
1 25.3984 17.3008 15.2446
1 26.1921 16.5071 15.2446
1 26.163 17.2786 14.4617
1 25.4126 16.487 14.4652
1 26.9858 17.3008 15.2446
1 27.7795 16.5071 15.2446
1 27.7621 17.2741 14.4551
1 26.9685 16.507 14.4378
1 28.5732 17.3008 15.2446
1 29.3669 16.5071 15.2446
1 29.2854 17.2775 14.424
1 28.5138 16.5192 14.4603
1 30 15.7134 15.2446
1 0.793701 14.9197 15.2446
1 0.833366 15.7116 14.4466
1 0.0689927 14.9247 14.4404
1 1.5874 15.7134 15.2446
1 2.3811 14.9197 15.2446
1 2.39052 15.7274 14.4291
1 1.60594 14.9276 14.4389
1 3.1748 15.7134 15.2446
1 3.9685 14.9197 15.2446
1 3.95717 15.702 14.4514
1 3.16985 14.9504 14.4665
1 4.7622 15.7134 15.2446
1 5.5559 14.9197 15.2446
1 5.56905 15.7138 14.5052
1 4.75498 14.9126 14.4567
1 6.3496 15.7134 15.2446
1 7.1433 14.9197 15.2446
1 7.15234 15.7025 14.4381
1 6.35116 14.9296 14.4678
1 7.93701 15.7134 15.2446
1 8.73071 14.9197 15.2446
1 8.73872 15.728 14.4392
1 7.95218 14.9141 14.4765
1 9.52441 15.7134 15.2446
1 10.3181 14.9197 15.2446
1 10.2992 15.7074 14.4456
1 9.5112 14.9161 14.4573
1 11.1118 15.7134 15.2446
1 11.9055 14.9197 15.2446
1 11.9142 15.7122 14.44
1 11.1005 14.927 14.4324
1 12.6992 15.7134 15.2446
1 13.4929 14.9197 15.2446
1 13.5122 15.6955 14.4674
1 12.6919 14.9214 14.4446
1 14.2866 15.7134 15.2446
1 15.0803 14.9197 15.2446
1 15.065 15.6999 14.4652
1 14.3021 14.8965 14.4395
1 15.874 15.7134 15.2446
1 16.6677 14.9197 15.2446
1 16.6681 15.7182 14.4384
1 15.8772 14.9304 14.4285
1 17.4614 15.7134 15.2446
1 18.2551 14.9197 15.2446
1 18.2571 15.7009 14.4476
1 17.4541 14.9114 14.4721
1 19.0488 15.7134 15.2446
1 19.8425 14.9197 15.2446
1 19.8381 15.7001 14.4434
1 19.0318 14.9205 14.4364
1 20.6362 15.7134 15.2446
1 21.4299 14.9197 15.2446
1 21.4191 15.7059 14.4488
1 20.6211 14.9218 14.4566
1 22.2236 15.7134 15.2446
1 23.0173 14.9197 15.2446
1 23.0107 15.7074 14.4402
1 22.2075 14.9296 14.4466
1 23.811 15.7134 15.2446
1 24.6047 14.9197 15.2446
1 24.6046 15.7145 14.4644
1 23.8166 14.9257 14.474
1 25.3984 15.7134 15.2446
1 26.1921 14.9197 15.2446
1 26.1788 15.7092 14.4579
1 25.3976 14.9138 14.4566
1 26.9858 15.7134 15.2446
1 27.7795 14.9197 15.2446
1 27.7853 15.7057 14.4202
1 26.9794 14.9258 14.4574
1 28.5732 15.7134 15.2446
1 29.3669 14.9197 15.2446
1 29.2963 15.7183 14.4174
1 28.5725 14.9111 14.4585
1 30 14.126 15.2446
1 0.793701 13.3323 15.2446
1 0.825342 14.1082 14.4466
1 0.0355939 13.3312 14.4159
1 1.5874 14.126 15.2446
1 2.3811 13.3323 15.2446
1 2.39753 14.1089 14.437
1 1.59121 13.3384 14.4452
1 3.1748 14.126 15.2446
1 3.9685 13.3323 15.2446
1 3.95001 14.1105 14.4309
1 3.19401 13.3385 14.4542
1 4.7622 14.126 15.2446
1 5.5559 13.3323 15.2446
1 5.56333 14.1164 14.4481
1 4.74866 13.3556 14.4624
1 6.3496 14.126 15.2446
1 7.1433 13.3323 15.2446
1 7.15763 14.1206 14.4718
1 6.34047 13.3609 14.42
1 7.93701 14.126 15.2446
1 8.73071 13.3323 15.2446
1 8.74742 14.1538 14.4558
1 7.93466 13.34 14.4693
1 9.52441 14.126 15.2446
1 10.3181 13.3323 15.2446
1 10.319 14.12 14.4533
1 9.49407 13.3244 14.437
1 11.1118 14.126 15.2446
1 11.9055 13.3323 15.2446
1 11.9085 14.1329 14.4551
1 11.1136 13.3314 14.4284
1 12.6992 14.126 15.2446
1 13.4929 13.3323 15.2446
1 13.5072 14.1549 14.4379
1 12.7207 13.3456 14.457
1 14.2866 14.126 15.2446
1 15.0803 13.3323 15.2446
1 15.0882 14.1034 14.453
1 14.2893 13.3318 14.4683
1 15.874 14.126 15.2446
1 16.6677 13.3323 15.2446
1 16.6815 14.0901 14.4457
1 15.8807 13.3306 14.4787
1 17.4614 14.126 15.2446
1 18.2551 13.3323 15.2446
1 18.2546 14.1423 14.4746
1 17.4813 13.3344 14.4645
1 19.0488 14.126 15.2446
1 19.8425 13.3323 15.2446
1 19.8562 14.134 14.4587
1 19.0283 13.349 14.4488
1 20.6362 14.126 15.2446
1 21.4299 13.3323 15.2446
1 21.4012 14.1337 14.4732
1 20.6431 13.3288 14.4771
1 22.2236 14.126 15.2446
1 23.0173 13.3323 15.2446
1 23.021 14.1288 14.4159
1 22.2307 13.3604 14.4842
1 23.811 14.126 15.2446
1 24.6047 13.3323 15.2446
1 24.6048 14.1223 14.4569
1 23.8083 13.3568 14.4333
1 25.3984 14.126 15.2446
1 26.1921 13.3323 15.2446
1 26.1914 14.1304 14.4285
1 25.4062 13.3648 14.4587
1 26.9858 14.126 15.2446
1 27.7795 13.3323 15.2446
1 27.7816 14.1359 14.4141
1 26.9895 13.3392 14.4324
1 28.5732 14.126 15.2446
1 29.3669 13.3323 15.2446
1 29.2933 14.1263 14.4199
1 28.5215 13.2961 14.4411
1 30 12.5386 15.2446
1 0.793701 11.7449 15.2446
1 0.814749 12.5427 14.4267
1 0.0830792 11.7458 14.4054
1 1.5874 12.5386 15.2446
1 2.3811 11.7449 15.2446
1 2.38476 12.5362 14.4254
1 1.58852 11.7537 14.4706
1 3.1748 12.5386 15.2446
1 3.9685 11.7449 15.2446
1 3.96021 12.5376 14.4643
1 3.1697 11.7439 14.4557
1 4.7622 12.5386 15.2446
1 5.5559 11.7449 15.2446
1 5.56498 12.5479 14.4337
1 4.75063 11.7451 14.4603
1 6.3496 12.5386 15.2446
1 7.1433 11.7449 15.2446
1 7.1347 12.5458 14.4445
1 6.35098 11.7519 14.4268
1 7.93701 12.5386 15.2446
1 8.73071 11.7449 15.2446
1 8.74327 12.5559 14.446
1 7.93513 11.7673 14.4647
1 9.52441 12.5386 15.2446
1 10.3181 11.7449 15.2446
1 10.2981 12.537 14.4597
1 9.50376 11.7392 14.43
1 11.1118 12.5386 15.2446
1 11.9055 11.7449 15.2446
1 11.9267 12.5165 14.4414
1 11.1184 11.7565 14.4479
1 12.6992 12.5386 15.2446
1 13.4929 11.7449 15.2446
1 13.4999 12.5422 14.4665
1 12.6744 11.7309 14.4665
1 14.2866 12.5386 15.2446
1 15.0803 11.7449 15.2446
1 15.0951 12.5797 14.4553
1 14.3062 11.7356 14.4263
1 15.874 12.5386 15.2446
1 16.6677 11.7449 15.2446
1 16.6704 12.5305 14.4553
1 15.8695 11.7339 14.4467
1 17.4614 12.5386 15.2446
1 18.2551 11.7449 15.2446
1 18.2515 12.5315 14.4334
1 17.4475 11.7296 14.4439
1 19.0488 12.5386 15.2446
1 19.8425 11.7449 15.2446
1 19.8455 12.5641 14.4582
1 19.0225 11.7688 14.4692
1 20.6362 12.5386 15.2446
1 21.4299 11.7449 15.2446
1 21.4295 12.5453 14.4525
1 20.6237 11.7291 14.4393
1 22.2236 12.5386 15.2446
1 23.0173 11.7449 15.2446
1 23.0293 12.5571 14.4871
1 22.2123 11.7498 14.481
1 23.811 12.5386 15.2446
1 24.6047 11.7449 15.2446
1 24.6038 12.5565 14.4457
1 23.831 11.7302 14.4387
1 25.3984 12.5386 15.2446
1 26.1921 11.7449 15.2446
1 26.1913 12.5331 14.4678
1 25.3967 11.7566 14.4427
1 26.9858 12.5386 15.2446
1 27.7795 11.7449 15.2446
1 27.7538 12.5196 14.4731
1 26.9698 11.7356 14.4736
1 28.5732 12.5386 15.2446
1 29.3669 11.7449 15.2446
1 29.3117 12.5327 14.3959
1 28.5825 11.7714 14.447
1 30 10.9512 15.2446
1 0.793701 10.1575 15.2446
1 0.83544 10.9289 14.4497
1 0.0872978 10.1404 14.4086
1 1.5874 10.9512 15.2446
1 2.3811 10.1575 15.2446
1 2.37406 10.947 14.4466
1 1.59222 10.1465 14.4482
1 3.1748 10.9512 15.2446
1 3.9685 10.1575 15.2446
1 3.97571 10.9591 14.4365
1 3.15589 10.1644 14.4551
1 4.7622 10.9512 15.2446
1 5.5559 10.1575 15.2446
1 5.557 10.9539 14.4605
1 4.76612 10.1752 14.4597
1 6.3496 10.9512 15.2446
1 7.1433 10.1575 15.2446
1 7.17191 10.9601 14.4357
1 6.3761 10.1738 14.4315
1 7.93701 10.9512 15.2446
1 8.73071 10.1575 15.2446
1 8.72988 10.9697 14.4583
1 7.92149 10.1612 14.4594
1 9.52441 10.9512 15.2446
1 10.3181 10.1575 15.2446
1 10.2892 10.9519 14.4652
1 9.51784 10.1558 14.4487
1 11.1118 10.9512 15.2446
1 11.9055 10.1575 15.2446
1 11.8951 10.9622 14.4421
1 11.1051 10.1365 14.4752
1 12.6992 10.9512 15.2446
1 13.4929 10.1575 15.2446
1 13.4934 10.9335 14.4572
1 12.693 10.1727 14.4548
1 14.2866 10.9512 15.2446
1 15.0803 10.1575 15.2446
1 15.0887 10.9347 14.4777
1 14.2891 10.1584 14.4618
1 15.874 10.9512 15.2446
1 16.6677 10.1575 15.2446
1 16.6686 10.9536 14.469
1 15.8813 10.156 14.4654
1 17.4614 10.9512 15.2446
1 18.2551 10.1575 15.2446
1 18.2615 10.9425 14.4531
1 17.4729 10.1605 14.485
1 19.0488 10.9512 15.2446
1 19.8425 10.1575 15.2446
1 19.8235 10.9643 14.4405
1 19.0496 10.143 14.4614
1 20.6362 10.9512 15.2446
1 21.4299 10.1575 15.2446
1 21.4171 10.9459 14.459
1 20.6148 10.1689 14.45
1 22.2236 10.9512 15.2446
1 23.0173 10.1575 15.2446
1 23.0038 10.936 14.4691
1 22.2286 10.1519 14.4453
1 23.811 10.9512 15.2446
1 24.6047 10.1575 15.2446
1 24.6206 10.9574 14.4468
1 23.808 10.162 14.4729
1 25.3984 10.9512 15.2446
1 26.1921 10.1575 15.2446
1 26.1839 10.9459 14.4458
1 25.4043 10.166 14.4521
1 26.9858 10.9512 15.2446
1 27.7795 10.1575 15.2446
1 27.7488 10.9619 14.4629
1 26.9782 10.1415 14.4477
1 28.5732 10.9512 15.2446
1 29.3669 10.1575 15.2446
1 29.3155 10.9603 14.4197
1 28.5463 10.1428 14.4762
1 30 9.36379 15.2446
1 0.793701 8.57009 15.2446
1 0.808888 9.37074 14.4209
1 0.0858743 8.58812 14.4287
1 1.5874 9.36379 15.2446
1 2.3811 8.57009 15.2446
1 2.39229 9.34629 14.4607
1 1.60981 8.5823 14.4525
1 3.1748 9.36379 15.2446
1 3.9685 8.57009 15.2446
1 3.98102 9.39036 14.473
1 3.18488 8.5817 14.4653
1 4.7622 9.36379 15.2446
1 5.5559 8.57009 15.2446
1 5.56579 9.37565 14.4486
1 4.76291 8.57443 14.4558
1 6.3496 9.36379 15.2446
1 7.1433 8.57009 15.2446
1 7.15953 9.35937 14.4572
1 6.3654 8.58414 14.4491
1 7.93701 9.36379 15.2446
1 8.73071 8.57009 15.2446
1 8.736 9.35807 14.4663
1 7.93285 8.55026 14.4494
1 9.52441 9.36379 15.2446
1 10.3181 8.57009 15.2446
1 10.2894 9.38064 14.466
1 9.52326 8.58883 14.4465
1 11.1118 9.36379 15.2446
1 11.9055 8.57009 15.2446
1 11.8789 9.37364 14.4646
1 11.1041 8.5753 14.4613
1 12.6992 9.36379 15.2446
1 13.4929 8.57009 15.2446
1 13.5008 9.33386 14.465
1 12.6985 8.55419 14.4466
1 14.2866 9.36379 15.2446
1 15.0803 8.57009 15.2446
1 15.07 9.34427 14.473
1 14.2723 8.56461 14.4807
1 15.874 9.36379 15.2446
1 16.6677 8.57009 15.2446
1 16.6874 9.35818 14.4716
1 15.8752 8.55963 14.4455
1 17.4614 9.36379 15.2446
1 18.2551 8.57009 15.2446
1 18.2722 9.37419 14.4508
1 17.4926 8.56416 14.4294
1 19.0488 9.36379 15.2446
1 19.8425 8.57009 15.2446
1 19.8472 9.36798 14.4725
1 19.0467 8.58085 14.4288
1 20.6362 9.36379 15.2446
1 21.4299 8.57009 15.2446
1 21.4275 9.36751 14.4651
1 20.6429 8.5812 14.4501
1 22.2236 9.36379 15.2446
1 23.0173 8.57009 15.2446
1 23.0405 9.36882 14.4477
1 22.2147 8.58964 14.4603
1 23.811 9.36379 15.2446
1 24.6047 8.57009 15.2446
1 24.6062 9.37034 14.4727
1 23.7895 8.57752 14.4568
1 25.3984 9.36379 15.2446
1 26.1921 8.57009 15.2446
1 26.2064 9.35043 14.4414
1 25.3968 8.59879 14.4499
1 26.9858 9.36379 15.2446
1 27.7795 8.57009 15.2446
1 27.7772 9.36109 14.4467
1 26.9838 8.58447 14.4542
1 28.5732 9.36379 15.2446
1 29.3669 8.57009 15.2446
1 29.2967 9.35358 14.4189
1 28.5723 8.52257 14.4828
1 30 7.77639 15.2446
1 0.793701 6.98268 15.2446
1 0.812168 7.76997 14.4528
1 0.0717518 6.98457 14.4197
1 1.5874 7.77639 15.2446
1 2.3811 6.98268 15.2446
1 2.40816 7.78865 14.4265
1 1.62552 6.9808 14.451
1 3.1748 7.77639 15.2446
1 3.9685 6.98268 15.2446
1 3.98179 7.77594 14.4419
1 3.18951 6.96304 14.4598
1 4.7622 7.77639 15.2446
1 5.5559 6.98268 15.2446
1 5.59147 7.76437 14.4258
1 4.78309 7.0022 14.4423
1 6.3496 7.77639 15.2446
1 7.1433 6.98268 15.2446
1 7.16117 7.78274 14.4429
1 6.36984 6.97598 14.4484
1 7.93701 7.77639 15.2446
1 8.73071 6.98268 15.2446
1 8.73734 7.78863 14.4313
1 7.9428 6.98864 14.4625
1 9.52441 7.77639 15.2446
1 10.3181 6.98268 15.2446
1 10.3001 7.79319 14.4217
1 9.52103 6.99043 14.4556
1 11.1118 7.77639 15.2446
1 11.9055 6.98268 15.2446
1 11.8959 7.78724 14.4515
1 11.1147 6.98828 14.4606
1 12.6992 7.77639 15.2446
1 13.4929 6.98268 15.2446
1 13.5008 7.78156 14.4652
1 12.704 7.0036 14.4429
1 14.2866 7.77639 15.2446
1 15.0803 6.98268 15.2446
1 15.0688 7.771 14.4593
1 14.2733 6.94803 14.4476
1 15.874 7.77639 15.2446
1 16.6677 6.98268 15.2446
1 16.6698 7.76376 14.4516
1 15.8902 6.98261 14.4336
1 17.4614 7.77639 15.2446
1 18.2551 6.98268 15.2446
1 18.286 7.77647 14.4495
1 17.4577 7.00639 14.4316
1 19.0488 7.77639 15.2446
1 19.8425 6.98268 15.2446
1 19.8577 7.77616 14.4367
1 19.0517 6.99134 14.4495
1 20.6362 7.77639 15.2446
1 21.4299 6.98268 15.2446
1 21.4468 7.78195 14.4557
1 20.6488 6.99588 14.4503
1 22.2236 7.77639 15.2446
1 23.0173 6.98268 15.2446
1 22.9978 7.78706 14.4595
1 22.1999 6.9851 14.4352
1 23.811 7.77639 15.2446
1 24.6047 6.98268 15.2446
1 24.6024 7.77848 14.4384
1 23.8045 6.98606 14.4521
1 25.3984 7.77639 15.2446
1 26.1921 6.98268 15.2446
1 26.1976 7.78782 14.4448
1 25.4006 6.98073 14.4537
1 26.9858 7.77639 15.2446
1 27.7795 6.98268 15.2446
1 27.7662 7.77572 14.465
1 26.9929 6.9876 14.4498
1 28.5732 7.77639 15.2446
1 29.3669 6.98268 15.2446
1 29.3189 7.77549 14.4283
1 28.5496 6.98598 14.451
1 30 6.18898 15.2446
1 0.793701 5.39528 15.2446
1 0.837236 6.17979 14.4286
1 0.0609593 5.40173 14.4283
1 1.5874 6.18898 15.2446
1 2.3811 5.39528 15.2446
1 2.40178 6.18717 14.4357
1 1.60397 5.40607 14.4432
1 3.1748 6.18898 15.2446
1 3.9685 5.39528 15.2446
1 3.99441 6.19799 14.4257
1 3.18997 5.38359 14.4813
1 4.7622 6.18898 15.2446
1 5.5559 5.39528 15.2446
1 5.5556 6.20712 14.438
1 4.76633 5.39659 14.4536
1 6.3496 6.18898 15.2446
1 7.1433 5.39528 15.2446
1 7.15619 6.15528 14.4437
1 6.31492 5.38562 14.463
1 7.93701 6.18898 15.2446
1 8.73071 5.39528 15.2446
1 8.75047 6.20581 14.4803
1 7.95449 5.39516 14.4652
1 9.52441 6.18898 15.2446
1 10.3181 5.39528 15.2446