9376
Atoms. Timestep: 4000000
1 30 3.55271e-15 10.8479
1 0.793701 29.2063 10.8479
1 0.822651 29.9451 9.9945
1 0.0808372 29.2109 9.99869
1 1.5874 3.55271e-15 10.8479
1 2.3811 29.2063 10.8479
1 2.41802 29.926 10.0429
1 1.58724 29.2283 10.0521
1 3.1748 3.55271e-15 10.8479
1 3.9685 29.2063 10.8479
1 3.9822 29.9158 10.0193
1 3.19588 29.1589 10.0666
1 4.7622 3.55271e-15 10.8479
1 5.5559 29.2063 10.8479
1 5.53761 29.9477 10.018
1 4.78026 29.1859 10.055
1 6.3496 3.55271e-15 10.8479
1 7.1433 29.2063 10.8479
1 7.14926 29.9415 10.0409
1 6.36217 29.1856 10.0754
1 7.93701 3.55271e-15 10.8479
1 8.73071 29.2063 10.8479
1 8.71761 29.921 10.021
1 7.933 29.1529 10.0499
1 9.52441 3.55271e-15 10.8479
1 10.3181 29.2063 10.8479
1 10.3336 29.9084 10.0252
1 9.52853 29.1721 10.0421
1 11.1118 3.55271e-15 10.8479
1 11.9055 29.2063 10.8479
1 11.9144 29.9575 10.0265
1 11.1237 29.2018 10.0524
1 12.6992 3.55271e-15 10.8479
1 13.4929 29.2063 10.8479
1 13.4797 29.9094 10.0178
1 12.6841 29.2033 10.0435
1 14.2866 3.55271e-15 10.8479
1 15.0803 29.2063 10.8479
1 15.0967 29.9291 10.0373
1 14.2809 29.1906 10.0587
1 15.874 3.55271e-15 10.8479
1 16.6677 29.2063 10.8479
1 16.6921 29.9106 10.0075
1 15.8918 29.1653 10.0492
1 17.4614 3.55271e-15 10.8479
1 18.2551 29.2063 10.8479
1 18.238 29.9174 10.0101
1 17.4719 29.1419 10.0496
1 19.0488 3.55271e-15 10.8479
1 19.8425 29.2063 10.8479
1 19.8605 29.9407 10.0272
1 19.0523 29.162 10.0556
1 20.6362 3.55271e-15 10.8479
1 21.4299 29.2063 10.8479
1 21.4366 29.9483 10.0105
1 20.6644 29.1716 10.0564
1 22.2236 3.55271e-15 10.8479
1 23.0173 29.2063 10.8479
1 23.0194 29.8994 10.0283
1 22.2259 29.1642 10.044
1 23.811 3.55271e-15 10.8479
1 24.6047 29.2063 10.8479
1 24.6163 29.9292 10.0292
1 23.8387 29.1681 10.0359
1 25.3984 3.55271e-15 10.8479
1 26.1921 29.2063 10.8479
1 26.1659 29.9446 10.0039
1 25.3901 29.1727 10.0312
1 26.9858 3.55271e-15 10.8479
1 27.7795 29.2063 10.8479
1 27.7742 29.9082 9.99208
1 26.9455 29.1677 10.0464
1 28.5732 3.55271e-15 10.8479
1 29.3669 29.2063 10.8479
1 29.3075 29.949 9.98227
1 28.5451 29.1695 10.0474
1 30 28.4126 10.8479
1 0.793701 27.6189 10.8479
1 0.834135 28.4248 10.0288
1 0.0885999 27.6009 10.0008
1 1.5874 28.4126 10.8479
1 2.3811 27.6189 10.8479
1 2.41396 28.4042 10.0553
1 1.58734 27.6165 10.0513
1 3.1748 28.4126 10.8479
1 3.9685 27.6189 10.8479
1 3.97229 28.3838 10.0671
1 3.18703 27.6197 10.0689
1 4.7622 28.4126 10.8479
1 5.5559 27.6189 10.8479
1 5.56637 28.3977 10.0818
1 4.73919 27.5899 10.0515
1 6.3496 28.4126 10.8479
1 7.1433 27.6189 10.8479
1 7.11959 28.3769 10.0464
1 6.35692 27.6125 10.0344
1 7.93701 28.4126 10.8479
1 8.73071 27.6189 10.8479
1 8.69787 28.4037 10.0488
1 7.93524 27.5947 10.0492
1 9.52441 28.4126 10.8479
1 10.3181 27.6189 10.8479
1 10.3437 28.409 10.0284
1 9.53728 27.5914 10.0445
1 11.1118 28.4126 10.8479
1 11.9055 27.6189 10.8479
1 11.9066 28.3821 10.072
1 11.1018 27.5961 10.0618
1 12.6992 28.4126 10.8479
1 13.4929 27.6189 10.8479
1 13.4918 28.4132 10.0463
1 12.6986 27.5763 10.0692
1 14.2866 28.4126 10.8479
1 15.0803 27.6189 10.8479
1 15.0766 28.3975 10.0852
1 14.3025 27.6022 10.0476
1 15.874 28.4126 10.8479
1 16.6677 27.6189 10.8479
1 16.6697 28.3964 10.0617
1 15.8765 27.6195 10.0528
1 17.4614 28.4126 10.8479
1 18.2551 27.6189 10.8479
1 18.2536 28.3805 10.0384
1 17.4317 27.5917 10.0407
1 19.0488 28.4126 10.8479
1 19.8425 27.6189 10.8479
1 19.8409 28.3985 10.035
1 19.0542 27.5966 10.0335
1 20.6362 28.4126 10.8479
1 21.4299 27.6189 10.8479
1 21.4254 28.3705 10.0505
1 20.6369 27.5725 10.0387
1 22.2236 28.4126 10.8479
1 23.0173 27.6189 10.8479
1 23.0354 28.3934 10.0405
1 22.2422 27.6061 10.0483
1 23.811 28.4126 10.8479
1 24.6047 27.6189 10.8479
1 24.6279 28.4018 10.0649
1 23.8019 27.5953 10.0505
1 25.3984 28.4126 10.8479
1 26.1921 27.6189 10.8479
1 26.1907 28.3922 10.0433
1 25.3932 27.6088 10.05
1 26.9858 28.4126 10.8479
1 27.7795 27.6189 10.8479
1 27.7731 28.4035 10.0481
1 26.9966 27.6291 10.0287
1 28.5732 28.4126 10.8479
1 29.3669 27.6189 10.8479
1 29.3168 28.4169 10.0163
1 28.5309 27.6372 10.0525
1 30 26.8252 10.8479
1 0.793701 26.0315 10.8479
1 0.842347 26.8363 10.0575
1 0.0467047 26.0446 10.0059
1 1.5874 26.8252 10.8479
1 2.3811 26.0315 10.8479
1 2.36685 26.8404 10.0427
1 1.60031 26.0423 10.0504
1 3.1748 26.8252 10.8479
1 3.9685 26.0315 10.8479
1 3.98373 26.8163 10.0551
1 3.17006 26.0578 10.0453
1 4.7622 26.8252 10.8479
1 5.5559 26.0315 10.8479
1 5.56351 26.8219 10.0462
1 4.77024 26.0324 10.0377
1 6.3496 26.8252 10.8479
1 7.1433 26.0315 10.8479
1 7.12924 26.8223 10.0519
1 6.36751 26.0385 10.0698
1 7.93701 26.8252 10.8479
1 8.73071 26.0315 10.8479
1 8.74682 26.8247 10.0688
1 7.9132 26.0358 10.0778
1 9.52441 26.8252 10.8479
1 10.3181 26.0315 10.8479
1 10.3093 26.8111 10.0673
1 9.50221 26.0196 10.0488
1 11.1118 26.8252 10.8479
1 11.9055 26.0315 10.8479
1 11.8949 26.8098 10.0787
1 11.1142 26.0292 10.0592
1 12.6992 26.8252 10.8479
1 13.4929 26.0315 10.8479
1 13.5098 26.8122 10.0765
1 12.6826 26.0007 10.0441
1 14.2866 26.8252 10.8479
1 15.0803 26.0315 10.8479
1 15.0788 26.8204 10.0416
1 14.289 26.0393 10.045
1 15.874 26.8252 10.8479
1 16.6677 26.0315 10.8479
1 16.6859 26.81 10.0535
1 15.8906 26.0316 10.0595
1 17.4614 26.8252 10.8479
1 18.2551 26.0315 10.8479
1 18.2625 26.8201 10.0469
1 17.4639 26.001 10.0522
1 19.0488 26.8252 10.8479
1 19.8425 26.0315 10.8479
1 19.8293 26.8053 10.0643
1 19.0575 25.9968 10.0604
1 20.6362 26.8252 10.8479
1 21.4299 26.0315 10.8479
1 21.4485 26.8093 10.0351
1 20.6558 26.0158 10.0639
1 22.2236 26.8252 10.8479
1 23.0173 26.0315 10.8479
1 23.0143 26.8085 10.0359
1 22.2282 26.0135 10.0528
1 23.811 26.8252 10.8479
1 24.6047 26.0315 10.8479
1 24.618 26.8385 10.0405
1 23.8172 26.0457 10.0059
1 25.3984 26.8252 10.8479
1 26.1921 26.0315 10.8479
1 26.2095 26.8045 10.0473
1 25.3855 26.0389 10.0673
1 26.9858 26.8252 10.8479
1 27.7795 26.0315 10.8479
1 27.7815 26.7945 10.0542
1 26.9946 26.0221 10.0514
1 28.5732 26.8252 10.8479
1 29.3669 26.0315 10.8479
1 29.2979 26.8333 10.021
1 28.5544 26.0338 10.0573
1 30 25.2378 10.8479
1 0.793701 24.4441 10.8479
1 0.815197 25.2519 10.0604
1 0.0926772 24.4157 10.0395
1 1.5874 25.2378 10.8479
1 2.3811 24.4441 10.8479
1 2.35959 25.226 10.0691
1 1.59705 24.4318 10.0401
1 3.1748 25.2378 10.8479
1 3.9685 24.4441 10.8479
1 3.96998 25.2695 10.0808
1 3.17289 24.4542 10.0548
1 4.7622 25.2378 10.8479
1 5.5559 24.4441 10.8479
1 5.56984 25.24 10.0542
1 4.76235 24.4408 10.0598
1 6.3496 25.2378 10.8479
1 7.1433 24.4441 10.8479
1 7.14325 25.2327 10.0456
1 6.35449 24.453 10.0622
1 7.93701 25.2378 10.8479
1 8.73071 24.4441 10.8479
1 8.70018 25.2465 10.0762
1 7.934 24.4474 10.0417
1 9.52441 25.2378 10.8479
1 10.3181 24.4441 10.8479
1 10.3179 25.2332 10.0621
1 9.50275 24.434 10.0611
1 11.1118 25.2378 10.8479
1 11.9055 24.4441 10.8479
1 11.8767 25.2332 10.0669
1 11.0966 24.4364 10.06
1 12.6992 25.2378 10.8479
1 13.4929 24.4441 10.8479
1 13.5007 25.2393 10.0582
1 12.695 24.4407 10.031
1 14.2866 25.2378 10.8479
1 15.0803 24.4441 10.8479
1 15.0643 25.236 10.0599
1 14.3036 24.4352 10.023
1 15.874 25.2378 10.8479
1 16.6677 24.4441 10.8479
1 16.6732 25.2269 10.0483
1 15.8778 24.4478 10.0617
1 17.4614 25.2378 10.8479
1 18.2551 24.4441 10.8479
1 18.2371 25.2112 10.0518
1 17.4688 24.4244 10.0441
1 19.0488 25.2378 10.8479
1 19.8425 24.4441 10.8479
1 19.8479 25.224 10.0429
1 19.0565 24.4301 10.0357
1 20.6362 25.2378 10.8479
1 21.4299 24.4441 10.8479
1 21.4341 25.2301 10.0617
1 20.6582 24.4266 10.0585
1 22.2236 25.2378 10.8479
1 23.0173 24.4441 10.8479
1 23.0232 25.2289 10.0263
1 22.2234 24.4407 10.0488
1 23.811 25.2378 10.8479
1 24.6047 24.4441 10.8479
1 24.6004 25.2289 10.0637
1 23.8003 24.4133 10.0611
1 25.3984 25.2378 10.8479
1 26.1921 24.4441 10.8479
1 26.1974 25.2646 10.0767
1 25.4037 24.4342 10.0537
1 26.9858 25.2378 10.8479
1 27.7795 24.4441 10.8479
1 27.7905 25.2204 10.054
1 26.9592 24.4653 10.0748
1 28.5732 25.2378 10.8479
1 29.3669 24.4441 10.8479
1 29.3012 25.2137 10.0073
1 28.5523 24.4269 10.062
1 30 23.6504 10.8479
1 0.793701 22.8567 10.8479
1 0.851773 23.6477 10.0447
1 0.0682072 22.8266 10.0221
1 1.5874 23.6504 10.8479
1 2.3811 22.8567 10.8479
1 2.3792 23.6379 10.0737
1 1.60298 22.8635 10.0624
1 3.1748 23.6504 10.8479
1 3.9685 22.8567 10.8479
1 3.96804 23.6611 10.0489
1 3.17607 22.8541 10.0915
1 4.7622 23.6504 10.8479
1 5.5559 22.8567 10.8479
1 5.55774 23.6648 10.0475
1 4.75295 22.8488 10.0624
1 6.3496 23.6504 10.8479
1 7.1433 22.8567 10.8479
1 7.16592 23.6495 10.034
1 6.34946 22.8539 10.0644
1 7.93701 23.6504 10.8479
1 8.73071 22.8567 10.8479
1 8.70616 23.6344 10.0371
1 7.94495 22.8586 10.0458
1 9.52441 23.6504 10.8479
1 10.3181 22.8567 10.8479
1 10.3066 23.6568 10.053
1 9.52399 22.8274 10.0643
1 11.1118 23.6504 10.8479
1 11.9055 22.8567 10.8479
1 11.8922 23.6549 10.0732
1 11.083 22.8797 10.0699
1 12.6992 23.6504 10.8479
1 13.4929 22.8567 10.8479
1 13.4895 23.6432 10.0383
1 12.7116 22.85 10.0397
1 14.2866 23.6504 10.8479
1 15.0803 22.8567 10.8479
1 15.08 23.6632 10.0569
1 14.3118 22.8436 10.0544
1 15.874 23.6504 10.8479
1 16.6677 22.8567 10.8479
1 16.6718 23.6497 10.0562
1 15.8701 22.8625 10.0589
1 17.4614 23.6504 10.8479
1 18.2551 22.8567 10.8479
1 18.2768 23.6415 10.059
1 17.4674 22.8757 10.0648
1 19.0488 23.6504 10.8479
1 19.8425 22.8567 10.8479
1 19.8521 23.6348 10.0586
1 19.0549 22.8548 10.0456
1 20.6362 23.6504 10.8479
1 21.4299 22.8567 10.8479
1 21.4249 23.6256 10.0597
1 20.6236 22.8451 10.066
1 22.2236 23.6504 10.8479
1 23.0173 22.8567 10.8479
1 23.0002 23.6822 10.032
1 22.2053 22.8566 10.0635
1 23.811 23.6504 10.8479
1 24.6047 22.8567 10.8479
1 24.6007 23.6229 10.0489
1 23.8021 22.838 10.0451
1 25.3984 23.6504 10.8479
1 26.1921 22.8567 10.8479
1 26.1969 23.6666 10.0595
1 25.3979 22.8421 10.0655
1 26.9858 23.6504 10.8479
1 27.7795 22.8567 10.8479
1 27.7666 23.6596 10.0505
1 26.9735 22.8368 10.0712
1 28.5732 23.6504 10.8479
1 29.3669 22.8567 10.8479
1 29.3139 23.6422 10.0376
1 28.5209 22.87 10.0452
1 30 22.063 10.8479
1 0.793701 21.2693 10.8479
1 0.822102 22.0619 10.0547
1 0.0545224 21.2798 10.0433
1 1.5874 22.063 10.8479
1 2.3811 21.2693 10.8479
1 2.3864 22.0721 10.0533
1 1.6169 21.2912 10.0624
1 3.1748 22.063 10.8479
1 3.9685 21.2693 10.8479
1 3.99185 22.0626 10.0616
1 3.14809 21.2952 10.0427
1 4.7622 22.063 10.8479
1 5.5559 21.2693 10.8479
1 5.55452 22.0527 10.0542
1 4.7492 21.2669 10.0396
1 6.3496 22.063 10.8479
1 7.1433 21.2693 10.8479
1 7.1312 22.0531 10.0439
1 6.348 21.2392 10.0572
1 7.93701 22.063 10.8479
1 8.73071 21.2693 10.8479
1 8.7072 22.0563 10.0527
1 7.94197 21.2459 10.0295
1 9.52441 22.063 10.8479
1 10.3181 21.2693 10.8479
1 10.3157 22.0478 10.0709
1 9.50343 21.2576 10.0327
1 11.1118 22.063 10.8479
1 11.9055 21.2693 10.8479
1 11.892 22.0572 10.0516
1 11.1237 21.2702 10.0645
1 12.6992 22.063 10.8479
1 13.4929 21.2693 10.8479
1 13.5012 22.0588 10.06
1 12.6952 21.2514 10.0467
1 14.2866 22.063 10.8479
1 15.0803 21.2693 10.8479
1 15.0872 22.0546 10.0563
1 14.2765 21.2869 10.0728
1 15.874 22.063 10.8479
1 16.6677 21.2693 10.8479
1 16.6877 22.0493 10.0618
1 15.8776 21.2652 10.0636
1 17.4614 22.063 10.8479
1 18.2551 21.2693 10.8479
1 18.2554 22.0561 10.047
1 17.4406 21.2674 10.0426
1 19.0488 22.063 10.8479
1 19.8425 21.2693 10.8479
1 19.8605 22.0447 10.0425
1 19.0508 21.2409 10.0948
1 20.6362 22.063 10.8479
1 21.4299 21.2693 10.8479
1 21.4186 22.0915 10.0612
1 20.6463 21.2524 10.0573
1 22.2236 22.063 10.8479
1 23.0173 21.2693 10.8479
1 23.0208 22.0744 10.0577
1 22.2146 21.2495 10.0607
1 23.811 22.063 10.8479
1 24.6047 21.2693 10.8479
1 24.5963 22.0684 10.0526
1 23.8298 21.2718 10.0578
1 25.3984 22.063 10.8479
1 26.1921 21.2693 10.8479
1 26.1967 22.0482 10.0273
1 25.4029 21.286 10.0566
1 26.9858 22.063 10.8479
1 27.7795 21.2693 10.8479
1 27.7613 22.0517 10.0572
1 26.9958 21.2637 10.036
1 28.5732 22.063 10.8479
1 29.3669 21.2693 10.8479
1 29.2989 22.0857 10.0585
1 28.564 21.2693 10.0302
1 30 20.4756 10.8479
1 0.793701 19.6819 10.8479
1 0.822084 20.49 10.0541
1 0.0597621 19.6902 10.011
1 1.5874 20.4756 10.8479
1 2.3811 19.6819 10.8479
1 2.40721 20.4732 10.0465
1 1.57314 19.6874 10.0406
1 3.1748 20.4756 10.8479
1 3.9685 19.6819 10.8479
1 3.99338 20.4815 10.0574
1 3.16286 19.6613 10.0631
1 4.7622 20.4756 10.8479
1 5.5559 19.6819 10.8479
1 5.55653 20.4703 10.0606
1 4.79139 19.6678 10.0475
1 6.3496 20.4756 10.8479
1 7.1433 19.6819 10.8479
1 7.14648 20.4832 10.0468
1 6.36896 19.6892 10.0357
1 7.93701 20.4756 10.8479
1 8.73071 19.6819 10.8479
1 8.73186 20.4927 10.0492
1 7.93758 19.6726 10.0483
1 9.52441 20.4756 10.8479
1 10.3181 19.6819 10.8479
1 10.3196 20.4934 10.0623
1 9.57152 19.6643 10.0542
1 11.1118 20.4756 10.8479
1 11.9055 19.6819 10.8479
1 11.8922 20.4729 10.0531
1 11.098 19.6978 10.0434
1 12.6992 20.4756 10.8479
1 13.4929 19.6819 10.8479
1 13.4587 20.4888 10.0656
1 12.6912 19.6846 10.0519
1 14.2866 20.4756 10.8479
1 15.0803 19.6819 10.8479
1 15.0908 20.4918 10.0513
1 14.2851 19.6999 10.062
1 15.874 20.4756 10.8479
1 16.6677 19.6819 10.8479
1 16.6631 20.4776 10.0616
1 15.8827 19.6741 10.03
1 17.4614 20.4756 10.8479
1 18.2551 19.6819 10.8479
1 18.2322 20.4516 10.0612
1 17.452 19.6934 10.0458
1 19.0488 20.4756 10.8479
1 19.8425 19.6819 10.8479
1 19.8337 20.4888 10.0526
1 19.029 19.6772 10.0558
1 20.6362 20.4756 10.8479
1 21.4299 19.6819 10.8479
1 21.4216 20.4503 10.0408
1 20.6499 19.7 10.0328
1 22.2236 20.4756 10.8479
1 23.0173 19.6819 10.8479
1 23.0402 20.4728 10.061
1 22.2064 19.6552 10.0537
1 23.811 20.4756 10.8479
1 24.6047 19.6819 10.8479
1 24.6043 20.5212 10.0619
1 23.8105 19.7061 10.0597
1 25.3984 20.4756 10.8479
1 26.1921 19.6819 10.8479
1 26.1961 20.486 10.0474
1 25.377 19.709 10.0818
1 26.9858 20.4756 10.8479
1 27.7795 19.6819 10.8479
1 27.7863 20.4714 10.045
1 26.9709 19.6809 10.0487
1 28.5732 20.4756 10.8479
1 29.3669 19.6819 10.8479
1 29.3192 20.4797 9.99803
1 28.5372 19.7132 10.0484
1 30 18.8882 10.8479
1 0.793701 18.0945 10.8479
1 0.810671 18.8801 10.0507
1 0.0494922 18.0873 10.0142
1 1.5874 18.8882 10.8479
1 2.3811 18.0945 10.8479
1 2.38594 18.8858 10.0381
1 1.57922 18.1316 10.0447
1 3.1748 18.8882 10.8479
1 3.9685 18.0945 10.8479
1 3.98838 18.8765 10.0746
1 3.17873 18.1175 10.0448
1 4.7622 18.8882 10.8479
1 5.5559 18.0945 10.8479
1 5.57498 18.8639 10.045
1 4.7709 18.1064 10.0836
1 6.3496 18.8882 10.8479
1 7.1433 18.0945 10.8479
1 7.12041 18.8987 10.0355
1 6.35977 18.0818 10.0458
1 7.93701 18.8882 10.8479
1 8.73071 18.0945 10.8479
1 8.73357 18.902 10.0517
1 7.93391 18.0951 10.0539
1 9.52441 18.8882 10.8479
1 10.3181 18.0945 10.8479
1 10.3196 18.8848 10.0455
1 9.5309 18.0946 10.0514
1 11.1118 18.8882 10.8479
1 11.9055 18.0945 10.8479
1 11.9056 18.8991 10.0286
1 11.1164 18.1026 10.079
1 12.6992 18.8882 10.8479
1 13.4929 18.0945 10.8479
1 13.4758 18.8842 10.0676
1 12.6969 18.091 10.0563
1 14.2866 18.8882 10.8479
1 15.0803 18.0945 10.8479
1 15.0631 18.9091 10.056
1 14.3103 18.094 10.0353
1 15.874 18.8882 10.8479
1 16.6677 18.0945 10.8479
1 16.6608 18.9164 10.0624
1 15.8907 18.0907 10.051
1 17.4614 18.8882 10.8479
1 18.2551 18.0945 10.8479
1 18.229 18.885 10.0453
1 17.429 18.1106 10.068
1 19.0488 18.8882 10.8479
1 19.8425 18.0945 10.8479
1 19.8629 18.9258 10.0568
1 19.0378 18.1096 10.0525
1 20.6362 18.8882 10.8479
1 21.4299 18.0945 10.8479
1 21.419 18.8802 10.0532
1 20.6139 18.0933 10.031
1 22.2236 18.8882 10.8479
1 23.0173 18.0945 10.8479
1 23.0282 18.8863 10.059
1 22.233 18.0878 10.0767
1 23.811 18.8882 10.8479
1 24.6047 18.0945 10.8479
1 24.5884 18.8844 10.0677
1 23.8153 18.0754 10.0813
1 25.3984 18.8882 10.8479
1 26.1921 18.0945 10.8479
1 26.1845 18.9219 10.0185
1 25.4029 18.0946 10.0491
1 26.9858 18.8882 10.8479
1 27.7795 18.0945 10.8479
1 27.7839 18.8848 10.0451
1 26.978 18.1017 10.0667
1 28.5732 18.8882 10.8479
1 29.3669 18.0945 10.8479
1 29.2934 18.8805 10.0222
1 28.5474 18.0847 10.0538
1 30 17.3008 10.8479
1 0.793701 16.5071 10.8479
1 0.819832 17.3246 10.0826
1 0.0581451 16.5159 10.0257
1 1.5874 17.3008 10.8479
1 2.3811 16.5071 10.8479
1 2.3798 17.3219 10.0697
1 1.62866 16.4918 10.0629
1 3.1748 17.3008 10.8479
1 3.9685 16.5071 10.8479
1 3.96989 17.3136 10.0488
1 3.17833 16.4964 10.0514
1 4.7622 17.3008 10.8479
1 5.5559 16.5071 10.8479
1 5.53017 17.3351 10.079
1 4.75382 16.5129 10.0629
1 6.3496 17.3008 10.8479
1 7.1433 16.5071 10.8479
1 7.13197 17.324 10.0495
1 6.34575 16.5023 10.0729
1 7.93701 17.3008 10.8479
1 8.73071 16.5071 10.8479
1 8.71464 17.3174 10.0745
1 7.9196 16.4937 10.0586
1 9.52441 17.3008 10.8479
1 10.3181 16.5071 10.8479
1 10.3017 17.3178 10.0569
1 9.52796 16.5251 10.055
1 11.1118 17.3008 10.8479
1 11.9055 16.5071 10.8479
1 11.8984 17.3216 10.0359
1 11.091 16.5397 10.073
1 12.6992 17.3008 10.8479
1 13.4929 16.5071 10.8479
1 13.4905 17.2929 10.047
1 12.7153 16.5245 10.0341
1 14.2866 17.3008 10.8479
1 15.0803 16.5071 10.8479
1 15.0807 17.3357 10.051
1 14.2909 16.5091 10.0788
1 15.874 17.3008 10.8479
1 16.6677 16.5071 10.8479
1 16.6661 17.2945 10.0621
1 15.8618 16.4792 10.0523
1 17.4614 17.3008 10.8479
1 18.2551 16.5071 10.8479
1 18.2388 17.3077 10.0688
1 17.4554 16.4899 10.0457
1 19.0488 17.3008 10.8479
1 19.8425 16.5071 10.8479
1 19.8481 17.295 10.0563
1 19.0506 16.4839 10.0359
1 20.6362 17.3008 10.8479
1 21.4299 16.5071 10.8479
1 21.4276 17.2891 10.0642
1 20.6509 16.496 10.0317
1 22.2236 17.3008 10.8479
1 23.0173 16.5071 10.8479
1 23.0248 17.2936 10.051
1 22.226 16.4936 10.0825
1 23.811 17.3008 10.8479
1 24.6047 16.5071 10.8479
1 24.6146 17.3028 10.0477
1 23.8012 16.4858 10.0582
1 25.3984 17.3008 10.8479
1 26.1921 16.5071 10.8479
1 26.1993 17.2872 10.0473
1 25.4134 16.4961 10.0578
1 26.9858 17.3008 10.8479
1 27.7795 16.5071 10.8479
1 27.7573 17.2568 10.0378
1 26.9698 16.5024 10.0555
1 28.5732 17.3008 10.8479
1 29.3669 16.5071 10.8479
1 29.3083 17.2924 10.011
1 28.5356 16.5189 10.0525
1 30 15.7134 10.8479
1 0.793701 14.9197 10.8479
1 0.833818 15.734 10.0502
1 0.0745656 14.9127 10.0286
1 1.5874 15.7134 10.8479
1 2.3811 14.9197 10.8479
1 2.40071 15.7229 10.051
1 1.61497 14.935 10.0663
1 3.1748 15.7134 10.8479
1 3.9685 14.9197 10.8479
1 3.97739 15.7022 10.0696
1 3.19568 14.9439 10.0814
1 4.7622 15.7134 10.8479
1 5.5559 14.9197 10.8479
1 5.56922 15.7272 10.0673
1 4.7894 14.9196 10.0639
1 6.3496 15.7134 10.8479
1 7.1433 14.9197 10.8479
1 7.14013 15.6941 10.0363
1 6.33967 14.9254 10.0505
1 7.93701 15.7134 10.8479
1 8.73071 14.9197 10.8479
1 8.73393 15.7157 10.0304
1 7.92409 14.893 10.0568
1 9.52441 15.7134 10.8479
1 10.3181 14.9197 10.8479
1 10.3262 15.722 10.0443
1 9.53204 14.9187 10.0588
1 11.1118 15.7134 10.8479
1 11.9055 14.9197 10.8479
1 11.8991 15.7314 10.0395
1 11.1015 14.931 10.0702
1 12.6992 15.7134 10.8479
1 13.4929 14.9197 10.8479
1 13.4865 15.7299 10.0759
1 12.7153 14.9485 10.0608
1 14.2866 15.7134 10.8479
1 15.0803 14.9197 10.8479
1 15.0833 15.6935 10.0793
1 14.2743 14.9068 10.0477
1 15.874 15.7134 10.8479
1 16.6677 14.9197 10.8479
1 16.6658 15.7064 10.0537
1 15.8926 14.9166 10.0546
1 17.4614 15.7134 10.8479
1 18.2551 14.9197 10.8479
1 18.2708 15.7112 10.0548
1 17.4409 14.9169 10.0698
1 19.0488 15.7134 10.8479
1 19.8425 14.9197 10.8479
1 19.8632 15.7039 10.0472
1 19.0423 14.9141 10.0586
1 20.6362 15.7134 10.8479
1 21.4299 14.9197 10.8479
1 21.4094 15.7114 10.0399
1 20.6172 14.9148 10.0539
1 22.2236 15.7134 10.8479
1 23.0173 14.9197 10.8479
1 23.0025 15.7088 10.0764
1 22.2032 14.9461 10.052
1 23.811 15.7134 10.8479
1 24.6047 14.9197 10.8479
1 24.5996 15.7202 10.0754
1 23.8168 14.9075 10.0724
1 25.3984 15.7134 10.8479
1 26.1921 14.9197 10.8479
1 26.1769 15.7029 10.0686
1 25.4002 14.9046 10.0608
1 26.9858 15.7134 10.8479
1 27.7795 14.9197 10.8479
1 27.7746 15.7018 10.0427
1 26.9819 14.9205 10.0336
1 28.5732 15.7134 10.8479
1 29.3669 14.9197 10.8479
1 29.2925 15.7066 10.0054
1 28.5777 14.9012 10.0675
1 30 14.126 10.8479
1 0.793701 13.3323 10.8479
1 0.820372 14.1194 10.0452
1 0.0565185 13.344 10.0154
1 1.5874 14.126 10.8479
1 2.3811 13.3323 10.8479
1 2.40216 14.1113 10.0442
1 1.61445 13.3353 10.0293
1 3.1748 14.126 10.8479
1 3.9685 13.3323 10.8479
1 3.98677 14.1163 10.0321
1 3.21033 13.3338 10.0678
1 4.7622 14.126 10.8479
1 5.5559 13.3323 10.8479
1 5.56336 14.1034 10.0491
1 4.76701 13.3565 10.073
1 6.3496 14.126 10.8479
1 7.1433 13.3323 10.8479
1 7.13882 14.1165 10.0737
1 6.35264 13.3364 10.0577
1 7.93701 14.126 10.8479
1 8.73071 13.3323 10.8479
1 8.75529 14.149 10.0484
1 7.92194 13.342 10.0397
1 9.52441 14.126 10.8479
1 10.3181 13.3323 10.8479
1 10.3368 14.1284 10.0748
1 9.53059 13.3379 10.0559
1 11.1118 14.126 10.8479
1 11.9055 13.3323 10.8479
1 11.9133 14.1368 10.0706
1 11.1372 13.3448 10.0363
1 12.6992 14.126 10.8479
1 13.4929 13.3323 10.8479
1 13.5097 14.136 10.0597
1 12.7122 13.3413 10.0349
1 14.2866 14.126 10.8479
1 15.0803 13.3323 10.8479
1 15.0666 14.1005 10.0414
1 14.2726 13.3158 10.0474
1 15.874 14.126 10.8479
1 16.6677 13.3323 10.8479
1 16.6635 14.1022 10.0781
1 15.8822 13.3198 10.051
1 17.4614 14.126 10.8479
1 18.2551 13.3323 10.8479
1 18.2565 14.1454 10.0954
1 17.4802 13.3349 10.0539
1 19.0488 14.126 10.8479
1 19.8425 13.3323 10.8479
1 19.854 14.1465 10.0595
1 19.0254 13.3521 10.053
1 20.6362 14.126 10.8479
1 21.4299 13.3323 10.8479
1 21.4152 14.1306 10.0766
1 20.6348 13.3245 10.0718
1 22.2236 14.126 10.8479
1 23.0173 13.3323 10.8479
1 23.0166 14.1146 10.0492
1 22.2202 13.3453 10.0868
1 23.811 14.126 10.8479
1 24.6047 13.3323 10.8479
1 24.6004 14.1066 10.0589
1 23.808 13.337 10.0398
1 25.3984 14.126 10.8479
1 26.1921 13.3323 10.8479
1 26.2054 14.1113 10.0398
1 25.4016 13.3271 10.0477
1 26.9858 14.126 10.8479
1 27.7795 13.3323 10.8479
1 27.7809 14.114 10.0425
1 26.9994 13.3187 10.0433
1 28.5732 14.126 10.8479
1 29.3669 13.3323 10.8479
1 29.2871 14.1269 10.033
1 28.534 13.2984 10.0286
1 30 12.5386 10.8479
1 0.793701 11.7449 10.8479
1 0.835403 12.5344 10.0678
1 0.0548828 11.7485 10.0351
1 1.5874 12.5386 10.8479
1 2.3811 11.7449 10.8479
1 2.39529 12.5381 10.0611
1 1.61674 11.7325 10.0866
1 3.1748 12.5386 10.8479
1 3.9685 11.7449 10.8479
1 3.98272 12.542 10.058
1 3.20212 11.7248 10.0621
1 4.7622 12.5386 10.8479
1 5.5559 11.7449 10.8479
1 5.55411 12.5331 10.0436
1 4.77661 11.7581 10.0598
1 6.3496 12.5386 10.8479
1 7.1433 11.7449 10.8479
1 7.12028 12.5274 10.0524
1 6.34771 11.7297 10.0511
1 7.93701 12.5386 10.8479
1 8.73071 11.7449 10.8479
1 8.73437 12.5558 10.0614
1 7.94366 11.7528 10.0519
1 9.52441 12.5386 10.8479
1 10.3181 11.7449 10.8479
1 10.3167 12.5401 10.0324
1 9.50641 11.7543 10.0376
1 11.1118 12.5386 10.8479
1 11.9055 11.7449 10.8479
1 11.9269 12.5216 10.0517
1 11.1073 11.771 10.0401
1 12.6992 12.5386 10.8479
1 13.4929 11.7449 10.8479
1 13.4983 12.5091 10.0378
1 12.6628 11.7323 10.0623
1 14.2866 12.5386 10.8479
1 15.0803 11.7449 10.8479
1 15.1 12.5758 10.0366
1 14.309 11.7367 10.0324
1 15.874 12.5386 10.8479
1 16.6677 11.7449 10.8479
1 16.6779 12.5335 10.0506
1 15.889 11.736 10.0446
1 17.4614 12.5386 10.8479
1 18.2551 11.7449 10.8479
1 18.2668 12.5288 10.0583
1 17.4579 11.7269 10.0448
1 19.0488 12.5386 10.8479
1 19.8425 11.7449 10.8479
1 19.8568 12.5609 10.0365
1 19.0445 11.759 10.0676
1 20.6362 12.5386 10.8479
1 21.4299 11.7449 10.8479
1 21.4296 12.5441 10.0406
1 20.6371 11.717 10.0692
1 22.2236 12.5386 10.8479
1 23.0173 11.7449 10.8479
1 23.0215 12.5484 10.068
1 22.2123 11.7513 10.0705
1 23.811 12.5386 10.8479
1 24.6047 11.7449 10.8479
1 24.5848 12.5445 10.0513
1 23.8242 11.7456 10.0505
1 25.3984 12.5386 10.8479
1 26.1921 11.7449 10.8479
1 26.1838 12.5395 10.0737
1 25.388 11.7254 10.0504
1 26.9858 12.5386 10.8479
1 27.7795 11.7449 10.8479
1 27.7607 12.5202 10.0584
1 26.9616 11.7504 10.0406
1 28.5732 12.5386 10.8479
1 29.3669 11.7449 10.8479
1 29.308 12.5315 10.0251
1 28.5782 11.7506 10.0565
1 30 10.9512 10.8479
1 0.793701 10.1575 10.8479
1 0.809765 10.9247 10.089
1 0.0675927 10.1403 10.0224
1 1.5874 10.9512 10.8479
1 2.3811 10.1575 10.8479
1 2.40316 10.9448 10.0596
1 1.60157 10.158 10.0618
1 3.1748 10.9512 10.8479
1 3.9685 10.1575 10.8479
1 4.01113 10.945 10.0624
1 3.17678 10.1547 10.0723
1 4.7622 10.9512 10.8479
1 5.5559 10.1575 10.8479
1 5.54564 10.9317 10.0501
1 4.76477 10.1627 10.0448
1 6.3496 10.9512 10.8479
1 7.1433 10.1575 10.8479
1 7.18051 10.9377 10.0568
1 6.36976 10.1663 10.048
1 7.93701 10.9512 10.8479
1 8.73071 10.1575 10.8479
1 8.74028 10.9614 10.0679
1 7.92889 10.1378 10.077
1 9.52441 10.9512 10.8479
1 10.3181 10.1575 10.8479
1 10.2987 10.9608 10.071
1 9.54307 10.1462 10.0344
1 11.1118 10.9512 10.8479
1 11.9055 10.1575 10.8479
1 11.8907 10.9562 10.0369
1 11.1129 10.1407 10.0665
1 12.6992 10.9512 10.8479
1 13.4929 10.1575 10.8479
1 13.4874 10.9377 10.0475
1 12.7146 10.172 10.0584
1 14.2866 10.9512 10.8479
1 15.0803 10.1575 10.8479
1 15.0877 10.943 10.0699
1 14.3018 10.1487 10.0564
1 15.874 10.9512 10.8479
1 16.6677 10.1575 10.8479
1 16.6758 10.9374 10.076
1 15.8824 10.1451 10.036
1 17.4614 10.9512 10.8479
1 18.2551 10.1575 10.8479
1 18.2642 10.93 10.0656
1 17.4633 10.1446 10.063
1 19.0488 10.9512 10.8479
1 19.8425 10.1575 10.8479
1 19.8531 10.9601 10.0663
1 19.0649 10.1491 10.0604
1 20.6362 10.9512 10.8479
1 21.4299 10.1575 10.8479
1 21.4302 10.9485 10.0467
1 20.6274 10.1692 10.064
1 22.2236 10.9512 10.8479
1 23.0173 10.1575 10.8479
1 23.0133 10.9479 10.0454
1 22.2422 10.1535 10.0736
1 23.811 10.9512 10.8479
1 24.6047 10.1575 10.8479
1 24.5873 10.9606 10.0431
1 23.8003 10.1565 10.0548
1 25.3984 10.9512 10.8479
1 26.1921 10.1575 10.8479
1 26.1609 10.9521 10.0509
1 25.378 10.1612 10.0577
1 26.9858 10.9512 10.8479
1 27.7795 10.1575 10.8479
1 27.7531 10.9561 10.0536
1 26.9588 10.1419 10.0522
1 28.5732 10.9512 10.8479
1 29.3669 10.1575 10.8479
1 29.3001 10.9545 10.0356
1 28.5364 10.144 10.0554
1 30 9.36379 10.8479
1 0.793701 8.57009 10.8479
1 0.808317 9.37454 10.0464
1 0.0718665 8.59363 10.0253
1 1.5874 9.36379 10.8479
1 2.3811 8.57009 10.8479
1 2.39424 9.36081 10.0334
1 1.60217 8.58944 10.048
1 3.1748 9.36379 10.8479
1 3.9685 8.57009 10.8479
1 3.95935 9.39135 10.0669
1 3.18768 8.57326 10.068
1 4.7622 9.36379 10.8479
1 5.5559 8.57009 10.8479
1 5.55186 9.36095 10.0488
1 4.75948 8.57695 10.0458
1 6.3496 9.36379 10.8479
1 7.1433 8.57009 10.8479
1 7.13404 9.35072 10.037
1 6.33166 8.57548 10.0274
1 7.93701 9.36379 10.8479
1 8.73071 8.57009 10.8479
1 8.75398 9.357 10.0655
1 7.9208 8.57845 10.0491
1 9.52441 9.36379 10.8479
1 10.3181 8.57009 10.8479
1 10.3178 9.37156 10.0726
1 9.52697 8.58234 10.065
1 11.1118 9.36379 10.8479
1 11.9055 8.57009 10.8479
1 11.92 9.3608 10.0656
1 11.1037 8.56091 10.0503
1 12.6992 9.36379 10.8479
1 13.4929 8.57009 10.8479
1 13.5086 9.35156 10.0568
1 12.6906 8.55005 10.074
1 14.2866 9.36379 10.8479
1 15.0803 8.57009 10.8479
1 15.0819 9.33369 10.0468
1 14.2753 8.55575 10.0555
1 15.874 9.36379 10.8479
1 16.6677 8.57009 10.8479
1 16.6713 9.3618 10.044
1 15.8743 8.55087 10.0722
1 17.4614 9.36379 10.8479
1 18.2551 8.57009 10.8479
1 18.2492 9.37213 10.0628
1 17.4761 8.55767 10.0312
1 19.0488 9.36379 10.8479
1 19.8425 8.57009 10.8479
1 19.8638 9.34702 10.0508
1 19.0542 8.59527 10.0189
1 20.6362 9.36379 10.8479
1 21.4299 8.57009 10.8479
1 21.4191 9.36568 10.0428
1 20.6568 8.58107 10.0416
1 22.2236 9.36379 10.8479
1 23.0173 8.57009 10.8479
1 23.0208 9.38236 10.036
1 22.2195 8.59301 10.05
1 23.811 9.36379 10.8479
1 24.6047 8.57009 10.8479
1 24.5891 9.36344 10.0568
1 23.7881 8.5677 10.0563
1 25.3984 9.36379 10.8479
1 26.1921 8.57009 10.8479
1 26.182 9.35173 10.0384
1 25.38 8.58967 10.0749
1 26.9858 9.36379 10.8479
1 27.7795 8.57009 10.8479
1 27.775 9.38283 10.0561
1 26.9872 8.57176 10.037
1 28.5732 9.36379 10.8479
1 29.3669 8.57009 10.8479
1 29.269 9.36055 10.0302
1 28.5326 8.56194 10.058
1 30 7.77639 10.8479
1 0.793701 6.98268 10.8479
1 0.818953 7.78016 10.0659
1 0.0743615 6.97115 10.0347
1 1.5874 7.77639 10.8479
1 2.3811 6.98268 10.8479
1 2.40077 7.80739 10.0608
1 1.60854 6.98666 10.0361
1 3.1748 7.77639 10.8479
1 3.9685 6.98268 10.8479
1 3.97779 7.79369 10.0561
1 3.17793 6.97255 10.0425
1 4.7622 7.77639 10.8479
1 5.5559 6.98268 10.8479
1 5.54397 7.74967 10.029
1 4.73769 6.98809 10.0455
1 6.3496 7.77639 10.8479
1 7.1433 6.98268 10.8479
1 7.11732 7.77412 10.0633
1 6.3542 6.979 10.0595
1 7.93701 7.77639 10.8479
1 8.73071 6.98268 10.8479
1 8.74742 7.78092 10.0625
1 7.95303 6.97101 10.0378
1 9.52441 7.77639 10.8479
1 10.3181 6.98268 10.8479
1 10.3106 7.79924 10.0589
1 9.50539 6.99505 10.0579
1 11.1118 7.77639 10.8479
1 11.9055 6.98268 10.8479
1 11.9022 7.78525 10.054
1 11.1018 7.00422 10.064
1 12.6992 7.77639 10.8479
1 13.4929 6.98268 10.8479
1 13.5023 7.77697 10.0484
1 12.6941 7.00632 10.0397
1 14.2866 7.77639 10.8479
1 15.0803 6.98268 10.8479
1 15.0429 7.77945 10.0471
1 14.2637 6.97128 10.0603
1 15.874 7.77639 10.8479
1 16.6677 6.98268 10.8479
1 16.6471 7.76446 10.0542
1 15.8644 6.97242 10.0219
1 17.4614 7.77639 10.8479
1 18.2551 6.98268 10.8479
1 18.2973 7.79806 10.0455
1 17.454 7.00496 10.0595
1 19.0488 7.77639 10.8479
1 19.8425 6.98268 10.8479
1 19.8606 7.77598 10.0485
1 19.0553 7.01616 10.0448
1 20.6362 7.77639 10.8479
1 21.4299 6.98268 10.8479
1 21.4464 7.78422 10.0448
1 20.6592 7.0199 10.0626
1 22.2236 7.77639 10.8479
1 23.0173 6.98268 10.8479
1 22.9805 7.78405 10.0531
1 22.1982 6.9851 10.0406
1 23.811 7.77639 10.8479
1 24.6047 6.98268 10.8479
1 24.5856 7.76237 10.0545
1 23.7925 6.95756 10.047
1 25.3984 7.77639 10.8479
1 26.1921 6.98268 10.8479
1 26.1999 7.77222 10.0261
1 25.4003 6.96628 10.07
1 26.9858 7.77639 10.8479
1 27.7795 6.98268 10.8479
1 27.7722 7.78365 10.0757
1 26.9856 6.9824 10.0526
1 28.5732 7.77639 10.8479
1 29.3669 6.98268 10.8479
1 29.3201 7.78105 10.0337
1 28.5656 6.98287 10.0562
1 30 6.18898 10.8479
1 0.793701 5.39528 10.8479
1 0.862547 6.16532 10.0249
1 0.0478683 5.38428 10.0199
1 1.5874 6.18898 10.8479
1 2.3811 5.39528 10.8479
1 2.40105 6.19702 10.0462
1 1.58822 5.3954 10.0746
1 3.1748 6.18898 10.8479
1 3.9685 5.39528 10.8479
1 3.98046 6.19557 10.0403
1 3.19593 5.39205 10.0637
1 4.7622 6.18898 10.8479
1 5.5559 5.39528 10.8479
1 5.54855 6.21055 10.0753
1 4.7801 5.37774 10.0627
1 6.3496 6.18898 10.8479
1 7.1433 5.39528 10.8479
1 7.13335 6.16334 10.0422
1 6.31454 5.39848 10.08
1 7.93701 6.18898 10.8479
1 8.73071 5.39528 10.8479
1 8.74375 6.19707 10.0679
1 7.9518 5.40378 10.069
1 9.52441 6.18898 10.8479
1 10.3181 5.39528 10.8479