9376
Atoms. Timestep: 4000000
1 15 3.55271e-15 10.913
1 15.7937 29.2063 10.913
1 15.8304 29.9308 10.061
1 15.0707 29.1792 10.0676
1 16.5874 3.55271e-15 10.913
1 17.3811 29.2063 10.913
1 17.3982 29.9503 10.0798
1 16.5937 29.2023 10.1226
1 18.1748 3.55271e-15 10.913
1 18.9685 29.2063 10.913
1 18.9772 29.9132 10.0855
1 18.1743 29.1528 10.108
1 19.7622 3.55271e-15 10.913
1 20.5559 29.2063 10.913
1 20.5618 29.9298 10.0813
1 19.7816 29.161 10.1056
1 21.3496 3.55271e-15 10.913
1 22.1433 29.2063 10.913
1 22.1574 29.9328 10.0909
1 21.3351 29.179 10.1213
1 22.937 3.55271e-15 10.913
1 23.7307 29.2063 10.913
1 23.7235 29.9314 10.0931
1 22.953 29.1795 10.1283
1 24.5244 3.55271e-15 10.913
1 25.3181 29.2063 10.913
1 25.3261 29.938 10.0844
1 24.5485 29.1612 10.1
1 26.1118 3.55271e-15 10.913
1 26.9055 29.2063 10.913
1 26.9119 29.9344 10.094
1 26.1325 29.1966 10.1079
1 27.6992 3.55271e-15 10.913
1 28.4929 29.2063 10.913
1 28.4878 29.9328 10.0874
1 27.6858 29.1566 10.125
1 29.2866 3.55271e-15 10.913
1 0.08031 29.2063 10.913
1 0.0969501 29.934 10.091
1 29.2761 29.172 10.0986
1 0.874011 3.55271e-15 10.913
1 1.66771 29.2063 10.913
1 1.6621 29.9374 10.0906
1 0.857893 29.158 10.1033
1 2.46141 3.55271e-15 10.913
1 3.25511 29.2063 10.913
1 3.24421 29.9163 10.0745
1 2.43507 29.1932 10.1096
1 4.04881 3.55271e-15 10.913
1 4.84251 29.2063 10.913
1 4.86574 29.9118 10.1028
1 4.0666 29.1885 10.1099
1 5.63621 3.55271e-15 10.913
1 6.42991 29.2063 10.913
1 6.41831 29.9422 10.0724
1 5.64015 29.1641 10.1107
1 7.22361 3.55271e-15 10.913
1 8.01732 29.2063 10.913
1 8.00888 29.9312 10.0674
1 7.21982 29.1774 10.1065
1 8.81102 3.55271e-15 10.913
1 9.60472 29.2063 10.913
1 9.58639 29.9241 10.0738
1 8.79788 29.1914 10.1299
1 10.3984 3.55271e-15 10.913
1 11.1921 29.2063 10.913
1 11.1639 29.922 10.0908
1 10.3904 29.1636 10.1313
1 11.9858 3.55271e-15 10.913
1 12.7795 29.2063 10.913
1 12.779 29.927 10.0926
1 11.9771 29.1962 10.1138
1 13.5732 3.55271e-15 10.913
1 14.3669 29.2063 10.913
1 14.3168 29.9333 10.0388
1 13.5632 29.172 10.0801
1 15 28.4126 10.913
1 15.7937 27.6189 10.913
1 15.8177 28.41 10.1161
1 15.0476 27.6152 10.1082
1 16.5874 28.4126 10.913
1 17.3811 27.6189 10.913
1 17.3804 28.4036 10.1094
1 16.5978 27.5893 10.1129
1 18.1748 28.4126 10.913
1 18.9685 27.6189 10.913
1 18.9818 28.3665 10.1269
1 18.1647 27.6236 10.1007
1 19.7622 28.4126 10.913
1 20.5559 27.6189 10.913
1 20.5775 28.3775 10.131
1 19.7779 27.6281 10.1218
1 21.3496 28.4126 10.913
1 22.1433 27.6189 10.913
1 22.143 28.4023 10.1271
1 21.3491 27.6174 10.0914
1 22.937 28.4126 10.913
1 23.7307 27.6189 10.913
1 23.7534 28.3916 10.099
1 22.9255 27.5918 10.1137
1 24.5244 28.4126 10.913
1 25.3181 27.6189 10.913
1 25.3157 28.394 10.1132
1 24.5487 27.6015 10.1103
1 26.1118 28.4126 10.913
1 26.9055 27.6189 10.913
1 26.8869 28.4004 10.1176
1 26.0921 27.6188 10.1171
1 27.6992 28.4126 10.913
1 28.4929 27.6189 10.913
1 28.4925 28.3924 10.142
1 27.6837 27.6259 10.1286
1 29.2866 28.4126 10.913
1 0.08031 27.6189 10.913
1 0.0555547 28.3897 10.1039
1 29.2733 27.5899 10.1401
1 0.874011 28.4126 10.913
1 1.66771 27.6189 10.913
1 1.67544 28.3992 10.1156
1 0.88007 27.615 10.0983
1 2.46141 28.4126 10.913
1 3.25511 27.6189 10.913
1 3.24332 28.4064 10.1148
1 2.46681 27.6433 10.1462
1 4.04881 28.4126 10.913
1 4.84251 27.6189 10.913
1 4.86028 28.3907 10.1166
1 4.05712 27.6525 10.1213
1 5.63621 28.4126 10.913
1 6.42991 27.6189 10.913
1 6.45414 28.4072 10.1078
1 5.65964 27.6249 10.1078
1 7.22361 28.4126 10.913
1 8.01732 27.6189 10.913
1 8.03381 28.3887 10.1053
1 7.20981 27.6377 10.1114
1 8.81102 28.4126 10.913
1 9.60472 27.6189 10.913
1 9.59946 28.3936 10.1152
1 8.83389 27.6129 10.1199
1 10.3984 28.4126 10.913
1 11.1921 27.6189 10.913
1 11.1879 28.4224 10.1119
1 10.3915 27.6125 10.1294
1 11.9858 28.4126 10.913
1 12.7795 27.6189 10.913
1 12.7678 28.3835 10.1278
1 11.942 27.6042 10.1189
1 13.5732 28.4126 10.913
1 14.3669 27.6189 10.913
1 14.3061 28.3895 10.0948
1 13.5609 27.579 10.1141
1 15 26.8252 10.913
1 15.7937 26.0315 10.913
1 15.8005 26.8291 10.1026
1 15.0604 26.0542 10.083
1 16.5874 26.8252 10.913
1 17.3811 26.0315 10.913
1 17.3859 26.7915 10.1298
1 16.5944 26.0465 10.1041
1 18.1748 26.8252 10.913
1 18.9685 26.0315 10.913
1 18.9737 26.8219 10.1184
1 18.1743 26.0257 10.1085
1 19.7622 26.8252 10.913
1 20.5559 26.0315 10.913
1 20.561 26.8274 10.1215
1 19.7619 26.0559 10.1104
1 21.3496 26.8252 10.913
1 22.1433 26.0315 10.913
1 22.1387 26.8036 10.0858
1 21.3377 26.0288 10.1055
1 22.937 26.8252 10.913
1 23.7307 26.0315 10.913
1 23.7295 26.8048 10.1206
1 22.9522 26.056 10.1287
1 24.5244 26.8252 10.913
1 25.3181 26.0315 10.913
1 25.3062 26.8075 10.0924
1 24.53 26.0209 10.1066
1 26.1118 26.8252 10.913
1 26.9055 26.0315 10.913
1 26.8816 26.8412 10.1189
1 26.1226 26.0085 10.1304
1 27.6992 26.8252 10.913
1 28.4929 26.0315 10.913
1 28.4818 26.826 10.1284
1 27.681 26.0211 10.125
1 29.2866 26.8252 10.913
1 0.08031 26.0315 10.913
1 0.069663 26.8075 10.1421
1 29.2993 26.0428 10.1255
1 0.874011 26.8252 10.913
1 1.66771 26.0315 10.913
1 1.66996 26.8217 10.1286
1 0.844891 26.022 10.1282
1 2.46141 26.8252 10.913
1 3.25511 26.0315 10.913
1 3.2595 26.8069 10.1253
1 2.47859 26.0293 10.1173
1 4.04881 26.8252 10.913
1 4.84251 26.0315 10.913
1 4.83306 26.8178 10.1123
1 4.06709 26.0198 10.1117
1 5.63621 26.8252 10.913
1 6.42991 26.0315 10.913
1 6.4395 26.8256 10.1162
1 5.62933 26.0338 10.1246
1 7.22361 26.8252 10.913
1 8.01732 26.0315 10.913
1 8.01644 26.8331 10.1288
1 7.205 26.0073 10.126
1 8.81102 26.8252 10.913
1 9.60472 26.0315 10.913
1 9.59105 26.8284 10.1248
1 8.79694 26.0342 10.1135
1 10.3984 26.8252 10.913
1 11.1921 26.0315 10.913
1 11.191 26.8343 10.13
1 10.3772 26.0214 10.1291
1 11.9858 26.8252 10.913
1 12.7795 26.0315 10.913
1 12.7561 26.8057 10.1574
1 11.9713 26.0467 10.1177
1 13.5732 26.8252 10.913
1 14.3669 26.0315 10.913
1 14.3095 26.8176 10.0751
1 13.5436 26.033 10.1059
1 15 25.2378 10.913
1 15.7937 24.4441 10.913
1 15.7833 25.235 10.1045
1 15.0547 24.4494 10.0984
1 16.5874 25.2378 10.913
1 17.3811 24.4441 10.913
1 17.4141 25.2359 10.1128
1 16.5923 24.4557 10.1222
1 18.1748 25.2378 10.913
1 18.9685 24.4441 10.913
1 18.9741 25.2441 10.1
1 18.1838 24.4421 10.1127
1 19.7622 25.2378 10.913
1 20.5559 24.4441 10.913
1 20.5292 25.2073 10.1328
1 19.7633 24.4257 10.1409
1 21.3496 25.2378 10.913
1 22.1433 24.4441 10.913
1 22.1443 25.231 10.1231
1 21.3247 24.4423 10.1352
1 22.937 25.2378 10.913
1 23.7307 24.4441 10.913
1 23.7251 25.2318 10.1153
1 22.9362 24.4499 10.1092
1 24.5244 25.2378 10.913
1 25.3181 24.4441 10.913
1 25.3286 25.216 10.1463
1 24.5075 24.4238 10.1207
1 26.1118 25.2378 10.913
1 26.9055 24.4441 10.913
1 26.8991 25.2335 10.1213
1 26.0951 24.4383 10.1424
1 27.6992 25.2378 10.913
1 28.4929 24.4441 10.913
1 28.4803 25.2054 10.1084
1 27.687 24.4476 10.1157
1 29.2866 25.2378 10.913
1 0.08031 24.4441 10.913
1 0.0498587 25.2203 10.132
1 29.2935 24.4465 10.1169
1 0.874011 25.2378 10.913
1 1.66771 24.4441 10.913
1 1.66857 25.2544 10.132
1 0.892412 24.4701 10.1355
1 2.46141 25.2378 10.913
1 3.25511 24.4441 10.913
1 3.2982 25.2273 10.1407
1 2.44677 24.4463 10.1076
1 4.04881 25.2378 10.913
1 4.84251 24.4441 10.913
1 4.85641 25.2219 10.1321
1 4.04378 24.4542 10.1226
1 5.63621 25.2378 10.913
1 6.42991 24.4441 10.913
1 6.40004 25.2386 10.106
1 5.63372 24.4287 10.1298
1 7.22361 25.2378 10.913
1 8.01732 24.4441 10.913
1 8.0016 25.2297 10.1013
1 7.21124 24.4303 10.1033
1 8.81102 25.2378 10.913
1 9.60472 24.4441 10.913
1 9.583 25.2432 10.1211
1 8.8144 24.4612 10.1135
1 10.3984 25.2378 10.913
1 11.1921 24.4441 10.913
1 11.1775 25.2578 10.1094
1 10.3883 24.4491 10.1288
1 11.9858 25.2378 10.913
1 12.7795 24.4441 10.913
1 12.7751 25.2535 10.1259
1 11.9845 24.4407 10.1052
1 13.5732 25.2378 10.913
1 14.3669 24.4441 10.913
1 14.3294 25.2565 10.0706
1 13.5388 24.4723 10.0936
1 15 23.6504 10.913
1 15.7937 22.8567 10.913
1 15.8411 23.6432 10.1314
1 15.0969 22.8659 10.0766
1 16.5874 23.6504 10.913
1 17.3811 22.8567 10.913
1 17.3836 23.6271 10.0897
1 16.6054 22.8337 10.1159
1 18.1748 23.6504 10.913
1 18.9685 22.8567 10.913
1 18.9729 23.6346 10.1055
1 18.1759 22.8537 10.1263
1 19.7622 23.6504 10.913
1 20.5559 22.8567 10.913
1 20.5483 23.65 10.1115
1 19.7706 22.8418 10.1325
1 21.3496 23.6504 10.913
1 22.1433 22.8567 10.913
1 22.1257 23.632 10.1462
1 21.328 22.856 10.1133
1 22.937 23.6504 10.913
1 23.7307 22.8567 10.913
1 23.7271 23.6412 10.1396
1 22.9469 22.8623 10.1324
1 24.5244 23.6504 10.913
1 25.3181 22.8567 10.913
1 25.321 23.6454 10.1416
1 24.5298 22.8597 10.1128
1 26.1118 23.6504 10.913
1 26.9055 22.8567 10.913
1 26.8986 23.6448 10.1182
1 26.122 22.8717 10.1314
1 27.6992 23.6504 10.913
1 28.4929 22.8567 10.913
1 28.4882 23.6355 10.1045
1 27.703 22.8524 10.1319
1 29.2866 23.6504 10.913
1 0.08031 22.8567 10.913
1 0.0926215 23.6558 10.1401
1 29.2847 22.8814 10.1016
1 0.874011 23.6504 10.913
1 1.66771 22.8567 10.913
1 1.67312 23.6379 10.1194
1 0.884451 22.8757 10.1153
1 2.46141 23.6504 10.913
1 3.25511 22.8567 10.913
1 3.2571 23.65 10.127
1 2.44409 22.8723 10.1289
1 4.04881 23.6504 10.913
1 4.84251 22.8567 10.913
1 4.83322 23.6349 10.0946
1 4.05798 22.8671 10.1361
1 5.63621 23.6504 10.913
1 6.42991 22.8567 10.913
1 6.42207 23.6578 10.1317
1 5.61765 22.8805 10.1231
1 7.22361 23.6504 10.913
1 8.01732 22.8567 10.913
1 8.00117 23.6717 10.1199
1 7.23429 22.871 10.1029
1 8.81102 23.6504 10.913
1 9.60472 22.8567 10.913
1 9.60083 23.6488 10.1325
1 8.8136 22.856 10.1339
1 10.3984 23.6504 10.913
1 11.1921 22.8567 10.913
1 11.1675 23.6525 10.1432
1 10.3946 22.8444 10.1227
1 11.9858 23.6504 10.913
1 12.7795 22.8567 10.913
1 12.7577 23.6362 10.1269
1 11.968 22.8654 10.1125
1 13.5732 23.6504 10.913
1 14.3669 22.8567 10.913
1 14.2925 23.6244 10.1032
1 13.5489 22.8539 10.1104
1 15 22.063 10.913
1 15.7937 21.2693 10.913
1 15.8348 22.0742 10.113
1 15.0829 21.2925 10.0682
1 16.5874 22.063 10.913
1 17.3811 21.2693 10.913
1 17.3987 22.0714 10.1207
1 16.6192 21.2651 10.1271
1 18.1748 22.063 10.913
1 18.9685 21.2693 10.913
1 18.989 22.062 10.134
1 18.1742 21.266 10.1145
1 19.7622 22.063 10.913
1 20.5559 21.2693 10.913
1 20.543 22.0654 10.1126
1 19.7621 21.2711 10.1082
1 21.3496 22.063 10.913
1 22.1433 21.2693 10.913
1 22.1604 22.0961 10.1265
1 21.3634 21.2642 10.1324
1 22.937 22.063 10.913
1 23.7307 21.2693 10.913
1 23.7184 22.0571 10.1165
1 22.9042 21.2616 10.0892
1 24.5244 22.063 10.913
1 25.3181 21.2693 10.913
1 25.3173 22.0438 10.0931
1 24.5096 21.2861 10.113
1 26.1118 22.063 10.913
1 26.9055 21.2693 10.913
1 26.8835 22.0568 10.1195
1 26.0885 21.2635 10.1474
1 27.6992 22.063 10.913
1 28.4929 21.2693 10.913
1 28.4995 22.0699 10.1124
1 27.6887 21.2677 10.1184
1 29.2866 22.063 10.913
1 0.08031 21.2693 10.913
1 0.0870375 22.0725 10.1203
1 29.283 21.2975 10.103
1 0.874011 22.063 10.913
1 1.66771 21.2693 10.913
1 1.64516 22.0891 10.1336
1 0.873275 21.2558 10.1
1 2.46141 22.063 10.913
1 3.25511 21.2693 10.913
1 3.28035 22.0669 10.1353
1 2.47509 21.3006 10.1392
1 4.04881 22.063 10.913
1 4.84251 21.2693 10.913
1 4.86709 22.0744 10.1114
1 4.07349 21.3142 10.1422
1 5.63621 22.063 10.913
1 6.42991 21.2693 10.913
1 6.45893 22.0579 10.1423
1 5.63018 21.2699 10.1097
1 7.22361 22.063 10.913
1 8.01732 21.2693 10.913
1 8.01601 22.0356 10.1122
1 7.19862 21.2317 10.0897
1 8.81102 22.063 10.913
1 9.60472 21.2693 10.913
1 9.61225 22.0816 10.1314
1 8.80759 21.2592 10.0998
1 10.3984 22.063 10.913
1 11.1921 21.2693 10.913
1 11.1878 22.0415 10.0922
1 10.3727 21.244 10.1303
1 11.9858 22.063 10.913
1 12.7795 21.2693 10.913
1 12.7689 22.0565 10.1134
1 11.9701 21.2802 10.1241
1 13.5732 22.063 10.913
1 14.3669 21.2693 10.913
1 14.2914 22.0697 10.0857
1 13.5479 21.2705 10.1011
1 15 20.4756 10.913
1 15.7937 19.6819 10.913
1 15.8336 20.5 10.1218
1 15.0782 19.7149 10.0833
1 16.5874 20.4756 10.913
1 17.3811 19.6819 10.913
1 17.4088 20.4852 10.1352
1 16.6157 19.6907 10.1239
1 18.1748 20.4756 10.913
1 18.9685 19.6819 10.913
1 18.9815 20.4675 10.1143
1 18.1842 19.6798 10.1398
1 19.7622 20.4756 10.913
1 20.5559 19.6819 10.913
1 20.5652 20.4615 10.1321
1 19.7708 19.6782 10.1207
1 21.3496 20.4756 10.913
1 22.1433 19.6819 10.913
1 22.1487 20.445 10.12
1 21.328 19.6555 10.1081
1 22.937 20.4756 10.913
1 23.7307 19.6819 10.913
1 23.7131 20.4689 10.1163
1 22.9184 19.6695 10.0913
1 24.5244 20.4756 10.913
1 25.3181 19.6819 10.913
1 25.3146 20.4616 10.118
1 24.5221 19.6741 10.152
1 26.1118 20.4756 10.913
1 26.9055 19.6819 10.913
1 26.913 20.4768 10.1169
1 26.1113 19.6867 10.1193
1 27.6992 20.4756 10.913
1 28.4929 19.6819 10.913
1 28.4822 20.4718 10.1456
1 27.6696 19.6954 10.128
1 29.2866 20.4756 10.913
1 0.08031 19.6819 10.913
1 0.0750375 20.4839 10.1401
1 29.3016 19.6895 10.1174
1 0.874011 20.4756 10.913
1 1.66771 19.6819 10.913
1 1.67945 20.4715 10.1207
1 0.871163 19.6721 10.1216
1 2.46141 20.4756 10.913
1 3.25511 19.6819 10.913
1 3.26204 20.4807 10.118
1 2.47557 19.6791 10.1366
1 4.04881 20.4756 10.913
1 4.84251 19.6819 10.913
1 4.83207 20.4681 10.1283
1 4.05173 19.667 10.1189
1 5.63621 20.4756 10.913
1 6.42991 19.6819 10.913
1 6.40984 20.487 10.1138
1 5.63732 19.6908 10.1294
1 7.22361 20.4756 10.913
1 8.01732 19.6819 10.913
1 8.00293 20.4706 10.1063
1 7.1941 19.6814 10.1012
1 8.81102 20.4756 10.913
1 9.60472 19.6819 10.913
1 9.59362 20.4673 10.1406
1 8.83378 19.6888 10.1326
1 10.3984 20.4756 10.913
1 11.1921 19.6819 10.913
1 11.19 20.4761 10.1017
1 10.4026 19.7108 10.1031
1 11.9858 20.4756 10.913
1 12.7795 19.6819 10.913
1 12.7795 20.4703 10.1337
1 11.9685 19.6967 10.0991
1 13.5732 20.4756 10.913
1 14.3669 19.6819 10.913
1 14.3346 20.5104 10.0995
1 13.5544 19.6885 10.1084
1 15 18.8882 10.913
1 15.7937 18.0945 10.913
1 15.8227 18.9112 10.1049
1 15.0762 18.0934 10.088
1 16.5874 18.8882 10.913
1 17.3811 18.0945 10.913
1 17.389 18.8783 10.1417
1 16.5818 18.0986 10.1091
1 18.1748 18.8882 10.913
1 18.9685 18.0945 10.913
1 18.9559 18.8805 10.1307
1 18.1927 18.0672 10.1164
1 19.7622 18.8882 10.913
1 20.5559 18.0945 10.913
1 20.548 18.8648 10.1512
1 19.7723 18.0889 10.1046
1 21.3496 18.8882 10.913
1 22.1433 18.0945 10.913
1 22.1256 18.8799 10.1473
1 21.3595 18.0957 10.1193
1 22.937 18.8882 10.913
1 23.7307 18.0945 10.913
1 23.7189 18.8914 10.1193
1 22.9243 18.086 10.1206
1 24.5244 18.8882 10.913
1 25.3181 18.0945 10.913
1 25.3209 18.8981 10.1181
1 24.5192 18.1095 10.0969
1 26.1118 18.8882 10.913
1 26.9055 18.0945 10.913
1 26.9142 18.8779 10.1082
1 26.1077 18.112 10.1002
1 27.6992 18.8882 10.913
1 28.4929 18.0945 10.913
1 28.4908 18.9095 10.1317
1 27.6818 18.0902 10.1114
1 29.2866 18.8882 10.913
1 0.08031 18.0945 10.913
1 0.092642 18.8843 10.1237
1 29.2828 18.0987 10.1151
1 0.874011 18.8882 10.913
1 1.66771 18.0945 10.913
1 1.67582 18.8886 10.1402
1 0.907481 18.1055 10.1168
1 2.46141 18.8882 10.913
1 3.25511 18.0945 10.913
1 3.25983 18.8887 10.1178
1 2.48619 18.0814 10.1245
1 4.04881 18.8882 10.913
1 4.84251 18.0945 10.913
1 4.85384 18.879 10.1169
1 4.04091 18.1146 10.1218
1 5.63621 18.8882 10.913
1 6.42991 18.0945 10.913
1 6.41586 18.8864 10.123
1 5.64309 18.087 10.131
1 7.22361 18.8882 10.913
1 8.01732 18.0945 10.913
1 7.99358 18.9005 10.1289
1 7.24591 18.1325 10.1032
1 8.81102 18.8882 10.913
1 9.60472 18.0945 10.913
1 9.59889 18.8967 10.0698
1 8.79951 18.0955 10.1241
1 10.3984 18.8882 10.913
1 11.1921 18.0945 10.913
1 11.1851 18.9059 10.1092
1 10.376 18.0843 10.1179
1 11.9858 18.8882 10.913
1 12.7795 18.0945 10.913
1 12.7835 18.8819 10.1255
1 11.9515 18.1021 10.136
1 13.5732 18.8882 10.913
1 14.3669 18.0945 10.913
1 14.3007 18.8829 10.084
1 13.5377 18.0825 10.1118
1 15 17.3008 10.913
1 15.7937 16.5071 10.913
1 15.8407 17.3031 10.1477
1 15.0855 16.5016 10.1029
1 16.5874 17.3008 10.913
1 17.3811 16.5071 10.913
1 17.3762 17.2945 10.1012
1 16.5986 16.5094 10.1079
1 18.1748 17.3008 10.913
1 18.9685 16.5071 10.913
1 18.9876 17.2981 10.1275
1 18.1919 16.518 10.0983
1 19.7622 17.3008 10.913
1 20.5559 16.5071 10.913
1 20.5667 17.3012 10.1347
1 19.7586 16.476 10.108
1 21.3496 17.3008 10.913
1 22.1433 16.5071 10.913
1 22.1331 17.2898 10.1123
1 21.4142 16.5169 10.1254
1 22.937 17.3008 10.913
1 23.7307 16.5071 10.913
1 23.7416 17.2861 10.1209
1 22.9139 16.505 10.1457
1 24.5244 17.3008 10.913
1 25.3181 16.5071 10.913
1 25.3272 17.3108 10.1157
1 24.5329 16.4988 10.1153
1 26.1118 17.3008 10.913
1 26.9055 16.5071 10.913
1 26.9045 17.309 10.1304
1 26.1324 16.5042 10.1169
1 27.6992 17.3008 10.913
1 28.4929 16.5071 10.913
1 28.4948 17.3214 10.0992
1 27.6982 16.5148 10.098
1 29.2866 17.3008 10.913
1 0.08031 16.5071 10.913
1 0.0750582 17.3219 10.1528
1 29.282 16.497 10.1299
1 0.874011 17.3008 10.913
1 1.66771 16.5071 10.913
1 1.65348 17.2831 10.1358
1 0.862899 16.5083 10.119
1 2.46141 17.3008 10.913
1 3.25511 16.5071 10.913
1 3.28284 17.3274 10.1303
1 2.48473 16.5286 10.1057
1 4.04881 17.3008 10.913
1 4.84251 16.5071 10.913
1 4.88364 17.3022 10.1162
1 4.05526 16.5143 10.1299
1 5.63621 17.3008 10.913
1 6.42991 16.5071 10.913
1 6.44353 17.3235 10.1331
1 5.64304 16.504 10.1035
1 7.22361 17.3008 10.913
1 8.01732 16.5071 10.913
1 7.99986 17.2816 10.116
1 7.22668 16.5106 10.1331
1 8.81102 17.3008 10.913
1 9.60472 16.5071 10.913
1 9.60361 17.2766 10.1339
1 8.81281 16.4898 10.1125
1 10.3984 17.3008 10.913
1 11.1921 16.5071 10.913
1 11.1641 17.2932 10.131
1 10.3774 16.4943 10.137
1 11.9858 17.3008 10.913
1 12.7795 16.5071 10.913
1 12.7781 17.2876 10.1182
1 11.9442 16.5061 10.143
1 13.5732 17.3008 10.913
1 14.3669 16.5071 10.913
1 14.3123 17.2719 10.077
1 13.5452 16.4982 10.114
1 15 15.7134 10.913
1 15.7937 14.9197 10.913
1 15.8041 15.7232 10.106
1 15.0864 14.9394 10.0967
1 16.5874 15.7134 10.913
1 17.3811 14.9197 10.913
1 17.4063 15.7113 10.1244
1 16.5986 14.9342 10.1088
1 18.1748 15.7134 10.913
1 18.9685 14.9197 10.913
1 18.9834 15.7005 10.0888
1 18.1982 14.9335 10.1375
1 19.7622 15.7134 10.913
1 20.5559 14.9197 10.913
1 20.568 15.7208 10.1388
1 19.7498 14.9174 10.1266
1 21.3496 15.7134 10.913
1 22.1433 14.9197 10.913
1 22.1373 15.7102 10.0978
1 21.3583 14.9234 10.1413
1 22.937 15.7134 10.913
1 23.7307 14.9197 10.913
1 23.7263 15.6903 10.1407
1 22.9272 14.9104 10.1447
1 24.5244 15.7134 10.913
1 25.3181 14.9197 10.913
1 25.3103 15.7329 10.1099
1 24.5277 14.9211 10.1526
1 26.1118 15.7134 10.913
1 26.9055 14.9197 10.913
1 26.9134 15.7103 10.1278
1 26.0967 14.9102 10.1468
1 27.6992 15.7134 10.913
1 28.4929 14.9197 10.913
1 28.5116 15.7057 10.1285
1 27.6972 14.9188 10.1368
1 29.2866 15.7134 10.913
1 0.08031 14.9197 10.913
1 0.0694799 15.7433 10.1394
1 29.2808 14.9234 10.1279
1 0.874011 15.7134 10.913
1 1.66771 14.9197 10.913
1 1.66746 15.7368 10.1472
1 0.870064 14.9086 10.1375
1 2.46141 15.7134 10.913
1 3.25511 14.9197 10.913
1 3.25458 15.7018 10.1222
1 2.46978 14.8977 10.1257
1 4.04881 15.7134 10.913
1 4.84251 14.9197 10.913
1 4.87929 15.7053 10.1105
1 4.0651 14.9487 10.1186
1 5.63621 15.7134 10.913
1 6.42991 14.9197 10.913
1 6.46419 15.7109 10.1093
1 5.64218 14.9169 10.1196
1 7.22361 15.7134 10.913
1 8.01732 14.9197 10.913
1 7.99106 15.7058 10.1202
1 7.2425 14.9296 10.1312
1 8.81102 15.7134 10.913
1 9.60472 14.9197 10.913
1 9.58785 15.71 10.127
1 8.81544 14.9236 10.1241
1 10.3984 15.7134 10.913
1 11.1921 14.9197 10.913
1 11.1696 15.7071 10.1024
1 10.3798 14.8913 10.1068
1 11.9858 15.7134 10.913
1 12.7795 14.9197 10.913
1 12.7597 15.7019 10.1281
1 11.9731 14.9234 10.1294
1 13.5732 15.7134 10.913
1 14.3669 14.9197 10.913
1 14.3087 15.723 10.0963
1 13.5637 14.9282 10.1281
1 15 14.126 10.913
1 15.7937 13.3323 10.913
1 15.8407 14.1135 10.1232
1 15.0263 13.3236 10.0868
1 16.5874 14.126 10.913
1 17.3811 13.3323 10.913
1 17.3829 14.1241 10.1284
1 16.5933 13.3046 10.1028
1 18.1748 14.126 10.913
1 18.9685 13.3323 10.913
1 18.9575 14.1257 10.1366
1 18.1801 13.3108 10.0982
1 19.7622 14.126 10.913
1 20.5559 13.3323 10.913
1 20.5673 14.1194 10.127
1 19.7609 13.365 10.121
1 21.3496 14.126 10.913
1 22.1433 13.3323 10.913
1 22.1481 14.1145 10.1234
1 21.3503 13.3363 10.1078
1 22.937 14.126 10.913
1 23.7307 13.3323 10.913
1 23.7349 14.1349 10.1373
1 22.9166 13.36 10.1179
1 24.5244 14.126 10.913
1 25.3181 13.3323 10.913
1 25.3398 14.104 10.1053
1 24.5342 13.3362 10.1128
1 26.1118 14.126 10.913
1 26.9055 13.3323 10.913
1 26.8935 14.138 10.1236
1 26.1136 13.3443 10.1116
1 27.6992 14.126 10.913
1 28.4929 13.3323 10.913
1 28.5022 14.1237 10.1064
1 27.6834 13.3595 10.1129
1 29.2866 14.126 10.913
1 0.08031 13.3323 10.913
1 0.0630418 14.1139 10.107
1 29.2878 13.3285 10.1109
1 0.874011 14.126 10.913
1 1.66771 13.3323 10.913
1 1.6791 14.1279 10.1141
1 0.879496 13.3495 10.101
1 2.46141 14.126 10.913
1 3.25511 13.3323 10.913
1 3.29125 14.1357 10.1013
1 2.4718 13.3371 10.1025
1 4.04881 14.126 10.913
1 4.84251 13.3323 10.913
1 4.83361 14.1278 10.0996
1 4.07218 13.3496 10.0828
1 5.63621 14.126 10.913
1 6.42991 13.3323 10.913
1 6.42898 14.1315 10.145
1 5.64508 13.3561 10.127
1 7.22361 14.126 10.913
1 8.01732 13.3323 10.913
1 8.01453 14.1497 10.1177
1 7.22679 13.3348 10.1213
1 8.81102 14.126 10.913
1 9.60472 13.3323 10.913
1 9.59038 14.1488 10.1285
1 8.82001 13.3465 10.1338
1 10.3984 14.126 10.913
1 11.1921 13.3323 10.913
1 11.1726 14.1361 10.1157
1 10.3719 13.3567 10.1186
1 11.9858 14.126 10.913
1 12.7795 13.3323 10.913
1 12.7929 14.1339 10.1042
1 11.9717 13.3476 10.113
1 13.5732 14.126 10.913
1 14.3669 13.3323 10.913
1 14.3109 14.1576 10.0751
1 13.5549 13.3203 10.1005
1 15 12.5386 10.913
1 15.7937 11.7449 10.913
1 15.8193 12.5342 10.1293
1 15.0743 11.7418 10.0884
1 16.5874 12.5386 10.913
1 17.3811 11.7449 10.913
1 17.3817 12.5337 10.1513
1 16.6194 11.7519 10.1057
1 18.1748 12.5386 10.913
1 18.9685 11.7449 10.913
1 18.9593 12.5613 10.1195
1 18.1857 11.7444 10.1276
1 19.7622 12.5386 10.913
1 20.5559 11.7449 10.913
1 20.5669 12.5551 10.1081
1 19.7676 11.7434 10.1192
1 21.3496 12.5386 10.913
1 22.1433 11.7449 10.913
1 22.1482 12.5468 10.1113
1 21.3634 11.7467 10.1269
1 22.937 12.5386 10.913
1 23.7307 11.7449 10.913
1 23.7311 12.5527 10.1105
1 22.9488 11.7474 10.1058
1 24.5244 12.5386 10.913
1 25.3181 11.7449 10.913
1 25.3301 12.5582 10.1232
1 24.4958 11.7597 10.1405
1 26.1118 12.5386 10.913
1 26.9055 11.7449 10.913
1 26.9236 12.5679 10.1244
1 26.1017 11.7431 10.1036
1 27.6992 12.5386 10.913
1 28.4929 11.7449 10.913
1 28.5031 12.5488 10.134
1 27.676 11.7469 10.1035
1 29.2866 12.5386 10.913
1 0.08031 11.7449 10.913
1 0.0927819 12.5199 10.1116
1 29.285 11.7426 10.1228
1 0.874011 12.5386 10.913
1 1.66771 11.7449 10.913
1 1.65902 12.566 10.1177
1 0.871994 11.7416 10.1121
1 2.46141 12.5386 10.913
1 3.25511 11.7449 10.913
1 3.2633 12.5401 10.1226
1 2.46717 11.7313 10.1341
1 4.04881 12.5386 10.913
1 4.84251 11.7449 10.913
1 4.82572 12.5393 10.1231
1 4.04396 11.7141 10.1369
1 5.63621 12.5386 10.913
1 6.42991 11.7449 10.913
1 6.43452 12.5368 10.1171
1 5.63843 11.742 10.1071
1 7.22361 12.5386 10.913
1 8.01732 11.7449 10.913
1 8.01256 12.5414 10.1059
1 7.23412 11.754 10.1238
1 8.81102 12.5386 10.913
1 9.60472 11.7449 10.913
1 9.60145 12.5577 10.1187
1 8.8171 11.7636 10.1456
1 10.3984 12.5386 10.913
1 11.1921 11.7449 10.913
1 11.1994 12.5543 10.1175
1 10.4006 11.7592 10.1275
1 11.9858 12.5386 10.913
1 12.7795 11.7449 10.913
1 12.7699 12.5477 10.1204
1 11.9708 11.7476 10.1248
1 13.5732 12.5386 10.913
1 14.3669 11.7449 10.913
1 14.3147 12.5221 10.0877
1 13.5475 11.7478 10.1301
1 15 10.9512 10.913
1 15.7937 10.1575 10.913
1 15.8303 10.9618 10.1137
1 15.0837 10.1636 10.087
1 16.5874 10.9512 10.913
1 17.3811 10.1575 10.913
1 17.3998 10.9398 10.1232
1 16.5787 10.1751 10.1191
1 18.1748 10.9512 10.913
1 18.9685 10.1575 10.913
1 19.0008 10.9397 10.1334
1 18.1556 10.1299 10.1255
1 19.7622 10.9512 10.913
1 20.5559 10.1575 10.913
1 20.5415 10.942 10.1157
1 19.7763 10.1599 10.1178
1 21.3496 10.9512 10.913
1 22.1433 10.1575 10.913
1 22.1406 10.9464 10.121
1 21.3255 10.1537 10.1073
1 22.937 10.9512 10.913
1 23.7307 10.1575 10.913
1 23.7088 10.9488 10.1233
1 22.9372 10.164 10.1096
1 24.5244 10.9512 10.913
1 25.3181 10.1575 10.913
1 25.3181 10.9365 10.1384
1 24.5239 10.1603 10.1183
1 26.1118 10.9512 10.913
1 26.9055 10.1575 10.913
1 26.8959 10.9318 10.094
1 26.1035 10.1618 10.1279
1 27.6992 10.9512 10.913
1 28.4929 10.1575 10.913
1 28.4856 10.9613 10.1238
1 27.7121 10.1543 10.1135
1 29.2866 10.9512 10.913
1 0.08031 10.1575 10.913
1 0.0605153 10.9451 10.103
1 29.2675 10.1523 10.1311
1 0.874011 10.9512 10.913
1 1.66771 10.1575 10.913
1 1.64486 10.951 10.1054
1 0.875673 10.1708 10.1279
1 2.46141 10.9512 10.913
1 3.25511 10.1575 10.913
1 3.25553 10.9354 10.1194
1 2.45348 10.1676 10.1053
1 4.04881 10.9512 10.913
1 4.84251 10.1575 10.913
1 4.82629 10.9065 10.1366
1 4.0549 10.1712 10.0971
1 5.63621 10.9512 10.913
1 6.42991 10.1575 10.913
1 6.435 10.9555 10.135
1 5.63148 10.1417 10.1072
1 7.22361 10.9512 10.913
1 8.01732 10.1575 10.913
1 8.03826 10.9341 10.1373
1 7.24144 10.1526 10.1212
1 8.81102 10.9512 10.913
1 9.60472 10.1575 10.913
1 9.58393 10.9637 10.1157
1 8.81289 10.1284 10.1103
1 10.3984 10.9512 10.913
1 11.1921 10.1575 10.913
1 11.1726 10.9471 10.1073
1 10.3896 10.1549 10.0989
1 11.9858 10.9512 10.913
1 12.7795 10.1575 10.913
1 12.7512 10.9602 10.1315
1 11.954 10.1523 10.1125
1 13.5732 10.9512 10.913
1 14.3669 10.1575 10.913
1 14.2999 10.9332 10.0863
1 13.5336 10.1273 10.1143
1 15 9.36379 10.913
1 15.7937 8.57009 10.913
1 15.8246 9.36868 10.1326
1 15.0914 8.55957 10.0873
1 16.5874 9.36379 10.913
1 17.3811 8.57009 10.913
1 17.3807 9.35316 10.1268
1 16.6179 8.57621 10.1118
1 18.1748 9.36379 10.913
1 18.9685 8.57009 10.913
1 18.9675 9.37623 10.1141
1 18.1735 8.53954 10.1287
1 19.7622 9.36379 10.913
1 20.5559 8.57009 10.913
1 20.5688 9.36982 10.135
1 19.7536 8.57657 10.12
1 21.3496 9.36379 10.913
1 22.1433 8.57009 10.913
1 22.1689 9.36551 10.1152
1 21.3682 8.5581 10.1459
1 22.937 9.36379 10.913
1 23.7307 8.57009 10.913
1 23.742 9.36744 10.1231
1 22.9664 8.57225 10.1341
1 24.5244 9.36379 10.913
1 25.3181 8.57009 10.913
1 25.3354 9.35127 10.1386
1 24.5369 8.55789 10.1385
1 26.1118 9.36379 10.913
1 26.9055 8.57009 10.913
1 26.9196 9.38057 10.096
1 26.1266 8.56542 10.1175
1 27.6992 9.36379 10.913
1 28.4929 8.57009 10.913
1 28.4991 9.36027 10.1054
1 27.7038 8.55988 10.1369
1 29.2866 9.36379 10.913
1 0.08031 8.57009 10.913
1 0.0946343 9.35166 10.1114
1 29.273 8.56476 10.1193
1 0.874011 9.36379 10.913
1 1.66771 8.57009 10.913
1 1.66354 9.37433 10.1074
1 0.884831 8.55635 10.1237
1 2.46141 9.36379 10.913
1 3.25511 8.57009 10.913
1 3.24553 9.39618 10.1146
1 2.46889 8.591 10.1074
1 4.04881 9.36379 10.913
1 4.84251 8.57009 10.913
1 4.84712 9.3621 10.149
1 4.04464 8.58767 10.1192
1 5.63621 9.36379 10.913
1 6.42991 8.57009 10.913
1 6.44334 9.36716 10.1392
1 5.64956 8.58668 10.1395
1 7.22361 9.36379 10.913
1 8.01732 8.57009 10.913
1 8.01438 9.34621 10.1097
1 7.20612 8.58022 10.115
1 8.81102 9.36379 10.913
1 9.60472 8.57009 10.913
1 9.59152 9.36058 10.1087
1 8.80569 8.58548 10.1296
1 10.3984 9.36379 10.913
1 11.1921 8.57009 10.913
1 11.1639 9.33798 10.0972
1 10.3925 8.5505 10.1312
1 11.9858 9.36379 10.913
1 12.7795 8.57009 10.913
1 12.7694 9.35508 10.1205
1 11.9821 8.57705 10.1247
1 13.5732 9.36379 10.913
1 14.3669 8.57009 10.913
1 14.3164 9.3548 10.0866
1 13.5447 8.56345 10.0854
1 15 7.77639 10.913
1 15.7937 6.98268 10.913
1 15.8212 7.78914 10.0982
1 15.0908 6.98614 10.0798
1 16.5874 7.77639 10.913
1 17.3811 6.98268 10.913
1 17.3675 7.78082 10.1199
1 16.5861 6.94846 10.0864
1 18.1748 7.77639 10.913
1 18.9685 6.98268 10.913
1 18.9491 7.77027 10.1263
1 18.1829 6.98834 10.1535
1 19.7622 7.77639 10.913
1 20.5559 6.98268 10.913
1 20.5704 7.80247 10.1206
1 19.7671 6.97424 10.106
1 21.3496 7.77639 10.913
1 22.1433 6.98268 10.913
1 22.1421 7.78422 10.1512
1 21.3544 6.97646 10.1182
1 22.937 7.77639 10.913
1 23.7307 6.98268 10.913
1 23.7323 7.78248 10.1267
1 22.9584 6.99023 10.1289
1 24.5244 7.77639 10.913
1 25.3181 6.98268 10.913
1 25.3168 7.78485 10.105
1 24.5282 6.9721 10.1193
1 26.1118 7.77639 10.913
1 26.9055 6.98268 10.913
1 26.9158 7.77625 10.1099
1 26.1348 6.98705 10.0954
1 27.6992 7.77639 10.913
1 28.4929 6.98268 10.913
1 28.4644 7.77572 10.1267
1 27.6912 6.98883 10.1186
1 29.2866 7.77639 10.913
1 0.08031 6.98268 10.913
1 0.0893491 7.77935 10.1476
1 29.2988 6.98556 10.1171
1 0.874011 7.77639 10.913
1 1.66771 6.98268 10.913
1 1.68721 7.80112 10.107
1 0.901478 6.98324 10.1327
1 2.46141 7.77639 10.913
1 3.25511 6.98268 10.913
1 3.23947 7.78702 10.1055
1 2.45714 6.98313 10.1228
1 4.04881 7.77639 10.913
1 4.84251 6.98268 10.913
1 4.81243 7.78638 10.125
1 4.03807 7.00022 10.1266
1 5.63621 7.77639 10.913
1 6.42991 6.98268 10.913
1 6.42462 7.77971 10.11
1 5.62798 6.99366 10.1028
1 7.22361 7.77639 10.913
1 8.01732 6.98268 10.913
1 8.0121 7.78895 10.1384
1 7.22882 6.98376 10.1216
1 8.81102 7.77639 10.913
1 9.60472 6.98268 10.913
1 9.59272 7.78031 10.1094
1 8.80445 6.99453 10.1102
1 10.3984 7.77639 10.913
1 11.1921 6.98268 10.913
1 11.1884 7.77697 10.1172
1 10.4091 7.00436 10.1291
1 11.9858 7.77639 10.913
1 12.7795 6.98268 10.913
1 12.7577 7.73628 10.1019
1 11.9768 6.99096 10.1214
1 13.5732 7.77639 10.913
1 14.3669 6.98268 10.913
1 14.2877 7.76783 10.1001
1 13.5642 6.99263 10.1214
1 15 6.18898 10.913
1 15.7937 5.39528 10.913
1 15.811 6.18288 10.1182
1 15.0842 5.37784 10.0778
1 16.5874 6.18898 10.913
1 17.3811 5.39528 10.913
1 17.4085 6.18876 10.1106
1 16.5893 5.39998 10.1158
1 18.1748 6.18898 10.913
1 18.9685 5.39528 10.913
1 18.9488 6.17902 10.109
1 18.1763 5.37358 10.1093
1 19.7622 6.18898 10.913
1 20.5559 5.39528 10.913
1 20.5837 6.18454 10.1142
1 19.7757 5.41426 10.1114
1 21.3496 6.18898 10.913
1 22.1433 5.39528 10.913
1 22.1344 6.21893 10.1325
1 21.3652 5.42369 10.1266
1 22.937 6.18898 10.913
1 23.7307 5.39528 10.913
1 23.7271 6.20267 10.1252
1 22.9257 5.40742 10.1151
1 24.5244 6.18898 10.913
1 25.3181 5.39528 10.913
1 25.3331 6.19138 10.1353
1 24.5383 5.39721 10.1317
1 26.1118 6.18898 10.913
1 26.9055 5.39528 10.913
1 26.9175 6.2031 10.1323
1 26.1163 5.3998 10.1347
1 27.6992 6.18898 10.913
1 28.4929 5.39528 10.913
1 28.4895 6.17978 10.1192
1 27.7069 5.38431 10.0849
1 29.2866 6.18898 10.913
1 0.08031 5.39528 10.913
1 0.112078 6.18162 10.1331
1 29.2947 5.41972 10.0955
1 0.874011 6.18898 10.913
1 1.66771 5.39528 10.913
1 1.64948 6.20053 10.1052