9376
Atoms. Timestep: 4000000
1 30 3.55271e-15 10.6581
1 0.793701 29.2063 10.6581
1 0.836322 29.9501 9.848
1 0.0762388 29.209 9.82745
1 1.5874 3.55271e-15 10.6581
1 2.3811 29.2063 10.6581
1 2.37644 29.914 9.83029
1 1.61087 29.1881 9.86175
1 3.1748 3.55271e-15 10.6581
1 3.9685 29.2063 10.6581
1 3.95446 29.9477 9.84133
1 3.20434 29.1678 9.84761
1 4.7622 3.55271e-15 10.6581
1 5.5559 29.2063 10.6581
1 5.56786 29.9434 9.82693
1 4.74681 29.1849 9.84299
1 6.3496 3.55271e-15 10.6581
1 7.1433 29.2063 10.6581
1 7.14826 29.9338 9.84573
1 6.35728 29.1906 9.85913
1 7.93701 3.55271e-15 10.6581
1 8.73071 29.2063 10.6581
1 8.73897 29.912 9.81372
1 7.9525 29.1721 9.83639
1 9.52441 3.55271e-15 10.6581
1 10.3181 29.2063 10.6581
1 10.3231 29.9367 9.82411
1 9.51843 29.1532 9.86883
1 11.1118 3.55271e-15 10.6581
1 11.9055 29.2063 10.6581
1 11.9111 29.93 9.83618
1 11.1189 29.1767 9.85621
1 12.6992 3.55271e-15 10.6581
1 13.4929 29.2063 10.6581
1 13.4821 29.9216 9.83248
1 12.6948 29.1866 9.86097
1 14.2866 3.55271e-15 10.6581
1 15.0803 29.2063 10.6581
1 15.0905 29.9251 9.82514
1 14.2597 29.1672 9.84362
1 15.874 3.55271e-15 10.6581
1 16.6677 29.2063 10.6581
1 16.6669 29.9467 9.84359
1 15.8738 29.1477 9.86444
1 17.4614 3.55271e-15 10.6581
1 18.2551 29.2063 10.6581
1 18.2696 29.881 9.83276
1 17.4708 29.1497 9.83615
1 19.0488 3.55271e-15 10.6581
1 19.8425 29.2063 10.6581
1 19.8334 29.9234 9.83825
1 19.0783 29.1637 9.85839
1 20.6362 3.55271e-15 10.6581
1 21.4299 29.2063 10.6581
1 21.4529 29.9481 9.8194
1 20.6349 29.1762 9.8586
1 22.2236 3.55271e-15 10.6581
1 23.0173 29.2063 10.6581
1 23.0216 29.9382 9.83971
1 22.2239 29.1724 9.86697
1 23.811 3.55271e-15 10.6581
1 24.6047 29.2063 10.6581
1 24.6007 29.9329 9.83985
1 23.7788 29.1904 9.84294
1 25.3984 3.55271e-15 10.6581
1 26.1921 29.2063 10.6581
1 26.1712 29.931 9.82914
1 25.3985 29.1823 9.84733
1 26.9858 3.55271e-15 10.6581
1 27.7795 29.2063 10.6581
1 27.7414 29.9056 9.80506
1 26.9715 29.1742 9.85839
1 28.5732 3.55271e-15 10.6581
1 29.3669 29.2063 10.6581
1 29.2861 29.9718 9.81475
1 28.5552 29.1725 9.83034
1 30 28.4126 10.6581
1 0.793701 27.6189 10.6581
1 0.819855 28.4219 9.85895
1 0.0884074 27.623 9.84291
1 1.5874 28.4126 10.6581
1 2.3811 27.6189 10.6581
1 2.37278 28.3951 9.83654
1 1.61264 27.6426 9.8668
1 3.1748 28.4126 10.6581
1 3.9685 27.6189 10.6581
1 3.98711 28.389 9.86062
1 3.18898 27.5953 9.88233
1 4.7622 28.4126 10.6581
1 5.5559 27.6189 10.6581
1 5.56825 28.3996 9.87559
1 4.78806 27.5977 9.88693
1 6.3496 28.4126 10.6581
1 7.1433 27.6189 10.6581
1 7.13708 28.3906 9.85359
1 6.3454 27.6457 9.87806
1 7.93701 28.4126 10.6581
1 8.73071 27.6189 10.6581
1 8.75177 28.3784 9.87044
1 7.91664 27.605 9.86745
1 9.52441 28.4126 10.6581
1 10.3181 27.6189 10.6581
1 10.3218 28.3842 9.86572
1 9.52409 27.5724 9.84908
1 11.1118 28.4126 10.6581
1 11.9055 27.6189 10.6581
1 11.8905 28.3897 9.84533
1 11.1136 27.6098 9.86835
1 12.6992 28.4126 10.6581
1 13.4929 27.6189 10.6581
1 13.4947 28.3921 9.84914
1 12.6975 27.5912 9.85933
1 14.2866 28.4126 10.6581
1 15.0803 27.6189 10.6581
1 15.0539 28.396 9.87053
1 14.2831 27.6317 9.89638
1 15.874 28.4126 10.6581
1 16.6677 27.6189 10.6581
1 16.6708 28.3839 9.86104
1 15.8495 27.6299 9.86913
1 17.4614 28.4126 10.6581
1 18.2551 27.6189 10.6581
1 18.2764 28.3905 9.86492
1 17.4608 27.6194 9.87339
1 19.0488 28.4126 10.6581
1 19.8425 27.6189 10.6581
1 19.8525 28.3897 9.84515
1 19.05 27.6282 9.84783
1 20.6362 28.4126 10.6581
1 21.4299 27.6189 10.6581
1 21.4602 28.3898 9.86375
1 20.6335 27.6148 9.86026
1 22.2236 28.4126 10.6581
1 23.0173 27.6189 10.6581
1 23.0119 28.3808 9.83562
1 22.2109 27.6161 9.8419
1 23.811 28.4126 10.6581
1 24.6047 27.6189 10.6581
1 24.6132 28.3882 9.84303
1 23.8213 27.6062 9.8748
1 25.3984 28.4126 10.6581
1 26.1921 27.6189 10.6581
1 26.185 28.3937 9.85679
1 25.3968 27.5908 9.83697
1 26.9858 28.4126 10.6581
1 27.7795 27.6189 10.6581
1 27.7758 28.4166 9.85361
1 26.9873 27.6167 9.86497
1 28.5732 28.4126 10.6581
1 29.3669 27.6189 10.6581
1 29.3158 28.4223 9.84087
1 28.5842 27.5975 9.87353
1 30 26.8252 10.6581
1 0.793701 26.0315 10.6581
1 0.820822 26.8044 9.86253
1 0.0848641 26.0255 9.85943
1 1.5874 26.8252 10.6581
1 2.3811 26.0315 10.6581
1 2.41416 26.816 9.88852
1 1.60685 26.0283 9.88337
1 3.1748 26.8252 10.6581
1 3.9685 26.0315 10.6581
1 3.98667 26.8149 9.86826
1 3.17798 26.014 9.86053
1 4.7622 26.8252 10.6581
1 5.5559 26.0315 10.6581
1 5.54858 26.817 9.85395
1 4.78266 26.0117 9.8626
1 6.3496 26.8252 10.6581
1 7.1433 26.0315 10.6581
1 7.13924 26.8269 9.87509
1 6.3569 26.0359 9.86635
1 7.93701 26.8252 10.6581
1 8.73071 26.0315 10.6581
1 8.73441 26.8048 9.84674
1 7.9427 26.0637 9.83164
1 9.52441 26.8252 10.6581
1 10.3181 26.0315 10.6581
1 10.3288 26.8194 9.85036
1 9.5134 26.0269 9.86997
1 11.1118 26.8252 10.6581
1 11.9055 26.0315 10.6581
1 11.9225 26.8096 9.83602
1 11.1059 26.0164 9.88085
1 12.6992 26.8252 10.6581
1 13.4929 26.0315 10.6581
1 13.5127 26.8127 9.88346
1 12.6906 26.0204 9.86062
1 14.2866 26.8252 10.6581
1 15.0803 26.0315 10.6581
1 15.0689 26.7936 9.87344
1 14.3182 26.021 9.88057
1 15.874 26.8252 10.6581
1 16.6677 26.0315 10.6581
1 16.6629 26.83 9.85168
1 15.8617 26.0196 9.86455
1 17.4614 26.8252 10.6581
1 18.2551 26.0315 10.6581
1 18.2566 26.8206 9.8639
1 17.4391 26.0172 9.87786
1 19.0488 26.8252 10.6581
1 19.8425 26.0315 10.6581
1 19.8268 26.8211 9.85911
1 19.0435 26.0031 9.85086
1 20.6362 26.8252 10.6581
1 21.4299 26.0315 10.6581
1 21.4259 26.7832 9.84278
1 20.6344 26.0342 9.87733
1 22.2236 26.8252 10.6581
1 23.0173 26.0315 10.6581
1 23.0187 26.8455 9.86234
1 22.2469 26.0403 9.87722
1 23.811 26.8252 10.6581
1 24.6047 26.0315 10.6581
1 24.6194 26.8345 9.89417
1 23.8299 26.0288 9.83868
1 25.3984 26.8252 10.6581
1 26.1921 26.0315 10.6581
1 26.2117 26.8094 9.87459
1 25.3919 26.0347 9.87381
1 26.9858 26.8252 10.6581
1 27.7795 26.0315 10.6581
1 27.7848 26.8044 9.87581
1 26.977 25.9963 9.88319
1 28.5732 26.8252 10.6581
1 29.3669 26.0315 10.6581
1 29.3207 26.8272 9.84539
1 28.5449 26.0365 9.86715
1 30 25.2378 10.6581
1 0.793701 24.4441 10.6581
1 0.831483 25.2283 9.87617
1 0.0372927 24.4309 9.83291
1 1.5874 25.2378 10.6581
1 2.3811 24.4441 10.6581
1 2.39875 25.2329 9.86607
1 1.62328 24.4394 9.8922
1 3.1748 25.2378 10.6581
1 3.9685 24.4441 10.6581
1 3.95713 25.2505 9.87205
1 3.15484 24.4524 9.86746
1 4.7622 25.2378 10.6581
1 5.5559 24.4441 10.6581
1 5.56038 25.2275 9.84641
1 4.74577 24.4498 9.87011
1 6.3496 25.2378 10.6581
1 7.1433 24.4441 10.6581
1 7.14451 25.2389 9.84596
1 6.36837 24.439 9.85453
1 7.93701 25.2378 10.6581
1 8.73071 24.4441 10.6581
1 8.73043 25.2319 9.86572
1 7.95915 24.4096 9.84495
1 9.52441 25.2378 10.6581
1 10.3181 24.4441 10.6581
1 10.3114 25.2402 9.85587
1 9.51696 24.4592 9.84949
1 11.1118 25.2378 10.6581
1 11.9055 24.4441 10.6581
1 11.9136 25.2548 9.85417
1 11.119 24.4455 9.88017
1 12.6992 25.2378 10.6581
1 13.4929 24.4441 10.6581
1 13.4957 25.2235 9.86718
1 12.7082 24.4235 9.85822
1 14.2866 25.2378 10.6581
1 15.0803 24.4441 10.6581
1 15.1285 25.2256 9.8558
1 14.2895 24.4356 9.86703
1 15.874 25.2378 10.6581
1 16.6677 24.4441 10.6581
1 16.6502 25.2277 9.8622
1 15.8745 24.4374 9.87027
1 17.4614 25.2378 10.6581
1 18.2551 24.4441 10.6581
1 18.2339 25.2124 9.86097
1 17.4605 24.4415 9.86936
1 19.0488 25.2378 10.6581
1 19.8425 24.4441 10.6581
1 19.821 25.2155 9.89466
1 19.0209 24.426 9.87333
1 20.6362 25.2378 10.6581
1 21.4299 24.4441 10.6581
1 21.4297 25.2455 9.87627
1 20.6395 24.449 9.86401
1 22.2236 25.2378 10.6581
1 23.0173 24.4441 10.6581
1 23.0281 25.2293 9.86244
1 22.2315 24.4316 9.85184
1 23.811 25.2378 10.6581
1 24.6047 24.4441 10.6581
1 24.5917 25.2152 9.84527
1 23.8376 24.4373 9.83682
1 25.3984 25.2378 10.6581
1 26.1921 24.4441 10.6581
1 26.156 25.2552 9.85548
1 25.3881 24.4377 9.86694
1 26.9858 25.2378 10.6581
1 27.7795 24.4441 10.6581
1 27.7573 25.2318 9.84664
1 26.9908 24.4543 9.85844
1 28.5732 25.2378 10.6581
1 29.3669 24.4441 10.6581
1 29.2832 25.2475 9.8566
1 28.5305 24.4411 9.86467
1 30 23.6504 10.6581
1 0.793701 22.8567 10.6581
1 0.83449 23.6367 9.82953
1 0.050561 22.8271 9.82914
1 1.5874 23.6504 10.6581
1 2.3811 22.8567 10.6581
1 2.37682 23.6056 9.85943
1 1.61043 22.8606 9.8688
1 3.1748 23.6504 10.6581
1 3.9685 22.8567 10.6581
1 3.97294 23.6468 9.85341
1 3.21989 22.8575 9.89197
1 4.7622 23.6504 10.6581
1 5.5559 22.8567 10.6581
1 5.55375 23.6842 9.87441
1 4.77059 22.8792 9.84664
1 6.3496 23.6504 10.6581
1 7.1433 22.8567 10.6581
1 7.15327 23.6392 9.82966
1 6.34551 22.8423 9.83158
1 7.93701 23.6504 10.6581
1 8.73071 22.8567 10.6581
1 8.73246 23.6574 9.84312
1 7.93524 22.8747 9.84915
1 9.52441 23.6504 10.6581
1 10.3181 22.8567 10.6581
1 10.3055 23.6574 9.83722
1 9.50807 22.8628 9.85043
1 11.1118 23.6504 10.6581
1 11.9055 22.8567 10.6581
1 11.9145 23.6438 9.84954
1 11.0891 22.8343 9.85348
1 12.6992 23.6504 10.6581
1 13.4929 22.8567 10.6581
1 13.4962 23.6289 9.87442
1 12.6777 22.8672 9.87505
1 14.2866 23.6504 10.6581
1 15.0803 22.8567 10.6581
1 15.1051 23.6433 9.86686
1 14.3159 22.8553 9.87933
1 15.874 23.6504 10.6581
1 16.6677 22.8567 10.6581
1 16.675 23.6371 9.8661
1 15.8774 22.8413 9.87764
1 17.4614 23.6504 10.6581
1 18.2551 22.8567 10.6581
1 18.2432 23.6376 9.86485
1 17.4565 22.8468 9.87172
1 19.0488 23.6504 10.6581
1 19.8425 22.8567 10.6581
1 19.8341 23.64 9.86571
1 19.0603 22.8549 9.8593
1 20.6362 23.6504 10.6581
1 21.4299 22.8567 10.6581
1 21.4496 23.6676 9.84902
1 20.6479 22.853 9.88128
1 22.2236 23.6504 10.6581
1 23.0173 22.8567 10.6581
1 23.0144 23.6779 9.8611
1 22.2316 22.8901 9.87336
1 23.811 23.6504 10.6581
1 24.6047 22.8567 10.6581
1 24.6157 23.6489 9.86428
1 23.7885 22.866 9.86977
1 25.3984 23.6504 10.6581
1 26.1921 22.8567 10.6581
1 26.2052 23.6513 9.87841
1 25.3995 22.8806 9.86239
1 26.9858 23.6504 10.6581
1 27.7795 22.8567 10.6581
1 27.7566 23.6469 9.86667
1 26.9973 22.8873 9.89489
1 28.5732 23.6504 10.6581
1 29.3669 22.8567 10.6581
1 29.3089 23.6181 9.86211
1 28.4989 22.8465 9.85462
1 30 22.063 10.6581
1 0.793701 21.2693 10.6581
1 0.813224 22.0456 9.84557
1 0.0307165 21.2713 9.81818
1 1.5874 22.063 10.6581
1 2.3811 21.2693 10.6581
1 2.41784 22.0717 9.87856
1 1.60575 21.2926 9.84973
1 3.1748 22.063 10.6581
1 3.9685 21.2693 10.6581
1 3.97913 22.0721 9.84154
1 3.16606 21.2947 9.85686
1 4.7622 22.063 10.6581
1 5.5559 21.2693 10.6581
1 5.5549 22.0548 9.85714
1 4.75166 21.2673 9.87291
1 6.3496 22.063 10.6581
1 7.1433 21.2693 10.6581
1 7.14539 22.0392 9.85441
1 6.34452 21.2687 9.85244
1 7.93701 22.063 10.6581
1 8.73071 21.2693 10.6581
1 8.72509 22.0518 9.87682
1 7.94275 21.2734 9.88121
1 9.52441 22.063 10.6581
1 10.3181 21.2693 10.6581
1 10.3003 22.0761 9.86153
1 9.51068 21.2541 9.86067
1 11.1118 22.063 10.6581
1 11.9055 21.2693 10.6581
1 11.9094 22.044 9.85908
1 11.1184 21.3061 9.87219
1 12.6992 22.063 10.6581
1 13.4929 21.2693 10.6581
1 13.4921 22.0758 9.87312
1 12.6996 21.2383 9.84592
1 14.2866 22.063 10.6581
1 15.0803 21.2693 10.6581
1 15.1 22.0635 9.87213
1 14.2775 21.2625 9.85487
1 15.874 22.063 10.6581
1 16.6677 21.2693 10.6581
1 16.6766 22.0501 9.85723
1 15.8692 21.2811 9.86238
1 17.4614 22.063 10.6581
1 18.2551 21.2693 10.6581
1 18.2645 22.0428 9.85759
1 17.4736 21.2621 9.85873
1 19.0488 22.063 10.6581
1 19.8425 21.2693 10.6581
1 19.8521 22.0295 9.86887
1 19.0405 21.2434 9.8579
1 20.6362 22.063 10.6581
1 21.4299 21.2693 10.6581
1 21.4366 22.0943 9.85911
1 20.6472 21.2473 9.84288
1 22.2236 22.063 10.6581
1 23.0173 21.2693 10.6581
1 23.0141 22.0751 9.89245
1 22.2128 21.2708 9.8926
1 23.811 22.063 10.6581
1 24.6047 21.2693 10.6581
1 24.5997 22.0549 9.86645
1 23.7963 21.2645 9.82315
1 25.3984 22.063 10.6581
1 26.1921 21.2693 10.6581
1 26.2019 22.0796 9.88314
1 25.401 21.2897 9.87726
1 26.9858 22.063 10.6581
1 27.7795 21.2693 10.6581
1 27.7583 22.036 9.85502
1 26.9755 21.2685 9.87213
1 28.5732 22.063 10.6581
1 29.3669 21.2693 10.6581
1 29.2746 22.0692 9.81961
1 28.5686 21.2627 9.86378
1 30 20.4756 10.6581
1 0.793701 19.6819 10.6581
1 0.845286 20.4596 9.84692
1 0.0747038 19.684 9.79602
1 1.5874 20.4756 10.6581
1 2.3811 19.6819 10.6581
1 2.37712 20.4917 9.84666
1 1.60475 19.67 9.84555
1 3.1748 20.4756 10.6581
1 3.9685 19.6819 10.6581
1 3.97935 20.4734 9.85257
1 3.16686 19.6868 9.8698
1 4.7622 20.4756 10.6581
1 5.5559 19.6819 10.6581
1 5.55199 20.466 9.8808
1 4.76145 19.6599 9.86652
1 6.3496 20.4756 10.6581
1 7.1433 19.6819 10.6581
1 7.13579 20.4699 9.89816
1 6.34184 19.6808 9.88015
1 7.93701 20.4756 10.6581
1 8.73071 19.6819 10.6581
1 8.72112 20.4928 9.85016
1 7.94746 19.6781 9.87531
1 9.52441 20.4756 10.6581
1 10.3181 19.6819 10.6581
1 10.3075 20.4661 9.88212
1 9.51114 19.6697 9.85978
1 11.1118 20.4756 10.6581
1 11.9055 19.6819 10.6581
1 11.8988 20.4971 9.87128
1 11.1104 19.711 9.84728
1 12.6992 20.4756 10.6581
1 13.4929 19.6819 10.6581
1 13.5042 20.4729 9.8661
1 12.694 19.7109 9.85262
1 14.2866 20.4756 10.6581
1 15.0803 19.6819 10.6581
1 15.0803 20.4794 9.85653
1 14.2627 19.6824 9.84674
1 15.874 20.4756 10.6581
1 16.6677 19.6819 10.6581
1 16.6648 20.4739 9.86775
1 15.8975 19.687 9.88548
1 17.4614 20.4756 10.6581
1 18.2551 19.6819 10.6581
1 18.2354 20.4497 9.84231
1 17.4589 19.6863 9.88299
1 19.0488 20.4756 10.6581
1 19.8425 19.6819 10.6581
1 19.8518 20.4773 9.86381
1 19.0608 19.695 9.85528
1 20.6362 20.4756 10.6581
1 21.4299 19.6819 10.6581
1 21.4255 20.4702 9.87064
1 20.6467 19.6739 9.85117
1 22.2236 20.4756 10.6581
1 23.0173 19.6819 10.6581
1 23.0104 20.4853 9.86116
1 22.2079 19.6601 9.8768
1 23.811 20.4756 10.6581
1 24.6047 19.6819 10.6581
1 24.5893 20.4974 9.87218
1 23.8158 19.6942 9.89523
1 25.3984 20.4756 10.6581
1 26.1921 19.6819 10.6581
1 26.1903 20.4898 9.84998
1 25.3813 19.6816 9.86501
1 26.9858 20.4756 10.6581
1 27.7795 19.6819 10.6581
1 27.7651 20.4749 9.85034
1 26.9788 19.6683 9.86756
1 28.5732 20.4756 10.6581
1 29.3669 19.6819 10.6581
1 29.3058 20.4722 9.85158
1 28.5608 19.6753 9.85796
1 30 18.8882 10.6581
1 0.793701 18.0945 10.6581
1 0.804097 18.8963 9.86134
1 0.0610002 18.1009 9.82153
1 1.5874 18.8882 10.6581
1 2.3811 18.0945 10.6581
1 2.37529 18.8888 9.85521
1 1.60487 18.1118 9.87116
1 3.1748 18.8882 10.6581
1 3.9685 18.0945 10.6581
1 3.96241 18.8726 9.85707
1 3.17372 18.0865 9.85744
1 4.7622 18.8882 10.6581
1 5.5559 18.0945 10.6581
1 5.57053 18.8732 9.85356
1 4.75263 18.1116 9.86849
1 6.3496 18.8882 10.6581
1 7.1433 18.0945 10.6581
1 7.14168 18.8788 9.87393
1 6.35975 18.0562 9.88399
1 7.93701 18.8882 10.6581
1 8.73071 18.0945 10.6581
1 8.73208 18.8891 9.88593
1 7.93924 18.1106 9.85581
1 9.52441 18.8882 10.6581
1 10.3181 18.0945 10.6581
1 10.3501 18.9088 9.84615
1 9.53772 18.1173 9.86196
1 11.1118 18.8882 10.6581
1 11.9055 18.0945 10.6581
1 11.9151 18.8833 9.83794
1 11.1262 18.1053 9.85755
1 12.6992 18.8882 10.6581
1 13.4929 18.0945 10.6581
1 13.4966 18.9017 9.85303
1 12.706 18.1139 9.87718
1 14.2866 18.8882 10.6581
1 15.0803 18.0945 10.6581
1 15.0966 18.8874 9.85822
1 14.2993 18.0984 9.86466
1 15.874 18.8882 10.6581
1 16.6677 18.0945 10.6581
1 16.679 18.8924 9.85475
1 15.877 18.11 9.86118
1 17.4614 18.8882 10.6581
1 18.2551 18.0945 10.6581
1 18.2665 18.877 9.86292
1 17.4785 18.1094 9.86335
1 19.0488 18.8882 10.6581
1 19.8425 18.0945 10.6581
1 19.8576 18.8986 9.84823
1 19.0517 18.1072 9.85695
1 20.6362 18.8882 10.6581
1 21.4299 18.0945 10.6581
1 21.4296 18.8712 9.8765
1 20.6518 18.1038 9.87088
1 22.2236 18.8882 10.6581
1 23.0173 18.0945 10.6581
1 23.0093 18.8952 9.90985
1 22.2266 18.0796 9.88384
1 23.811 18.8882 10.6581
1 24.6047 18.0945 10.6581
1 24.5916 18.8972 9.87105
1 23.8243 18.112 9.87915
1 25.3984 18.8882 10.6581
1 26.1921 18.0945 10.6581
1 26.1803 18.8922 9.85794
1 25.3746 18.0733 9.86491
1 26.9858 18.8882 10.6581
1 27.7795 18.0945 10.6581
1 27.75 18.8734 9.85291
1 26.9707 18.0929 9.86155
1 28.5732 18.8882 10.6581
1 29.3669 18.0945 10.6581
1 29.3112 18.8753 9.83412
1 28.5266 18.1201 9.83715
1 30 17.3008 10.6581
1 0.793701 16.5071 10.6581
1 0.823863 17.3308 9.84687
1 0.0774292 16.5194 9.83836
1 1.5874 17.3008 10.6581
1 2.3811 16.5071 10.6581
1 2.41911 17.3 9.87576
1 1.62777 16.526 9.88367
1 3.1748 17.3008 10.6581
1 3.9685 16.5071 10.6581
1 3.96963 17.3142 9.88114
1 3.18417 16.4928 9.85565
1 4.7622 17.3008 10.6581
1 5.5559 16.5071 10.6581
1 5.55475 17.3131 9.85715
1 4.76919 16.503 9.875
1 6.3496 17.3008 10.6581
1 7.1433 16.5071 10.6581
1 7.15432 17.3263 9.87571
1 6.33366 16.5363 9.89784
1 7.93701 17.3008 10.6581
1 8.73071 16.5071 10.6581
1 8.71973 17.3014 9.8799
1 7.91682 16.5307 9.87059
1 9.52441 17.3008 10.6581
1 10.3181 16.5071 10.6581
1 10.3368 17.3095 9.88282
1 9.50876 16.5132 9.87407
1 11.1118 17.3008 10.6581
1 11.9055 16.5071 10.6581
1 11.9183 17.3261 9.84874
1 11.1185 16.5289 9.86333
1 12.6992 17.3008 10.6581
1 13.4929 16.5071 10.6581
1 13.5003 17.298 9.86883
1 12.6668 16.5061 9.87846
1 14.2866 17.3008 10.6581
1 15.0803 16.5071 10.6581
1 15.0734 17.3108 9.85755
1 14.3054 16.4734 9.86205
1 15.874 17.3008 10.6581
1 16.6677 16.5071 10.6581
1 16.6429 17.3063 9.86101
1 15.8754 16.5247 9.8465
1 17.4614 17.3008 10.6581
1 18.2551 16.5071 10.6581
1 18.2447 17.2949 9.8576
1 17.4377 16.5166 9.84658
1 19.0488 17.3008 10.6581
1 19.8425 16.5071 10.6581
1 19.845 17.269 9.84769
1 19.0453 16.487 9.8757
1 20.6362 17.3008 10.6581
1 21.4299 16.5071 10.6581
1 21.4105 17.2886 9.85733
1 20.6467 16.5017 9.86203
1 22.2236 17.3008 10.6581
1 23.0173 16.5071 10.6581
1 23.0211 17.3032 9.85228
1 22.1934 16.5123 9.8546
1 23.811 17.3008 10.6581
1 24.6047 16.5071 10.6581
1 24.6138 17.2971 9.86084
1 23.8042 16.4964 9.86592
1 25.3984 17.3008 10.6581
1 26.1921 16.5071 10.6581
1 26.1697 17.295 9.86585
1 25.3816 16.4965 9.84567
1 26.9858 17.3008 10.6581
1 27.7795 16.5071 10.6581
1 27.7509 17.293 9.85013
1 26.9808 16.4979 9.84558
1 28.5732 17.3008 10.6581
1 29.3669 16.5071 10.6581
1 29.2907 17.3 9.86197
1 28.5263 16.4871 9.84982
1 30 15.7134 10.6581
1 0.793701 14.9197 10.6581
1 0.821425 15.7267 9.86198
1 0.0763692 14.9591 9.83819
1 1.5874 15.7134 10.6581
1 2.3811 14.9197 10.6581
1 2.3798 15.692 9.86201
1 1.59119 14.933 9.85641
1 3.1748 15.7134 10.6581
1 3.9685 14.9197 10.6581
1 3.9795 15.7247 9.86241
1 3.1941 14.9238 9.86158
1 4.7622 15.7134 10.6581
1 5.5559 14.9197 10.6581
1 5.55282 15.708 9.89106
1 4.7906 14.9174 9.89202
1 6.3496 15.7134 10.6581
1 7.1433 14.9197 10.6581
1 7.14649 15.72 9.88419
1 6.37653 14.9237 9.86354
1 7.93701 15.7134 10.6581
1 8.73071 14.9197 10.6581
1 8.71469 15.702 9.87136
1 7.92814 14.9249 9.85299
1 9.52441 15.7134 10.6581
1 10.3181 14.9197 10.6581
1 10.3337 15.7041 9.88798
1 9.54648 14.9052 9.86585
1 11.1118 15.7134 10.6581
1 11.9055 14.9197 10.6581
1 11.8934 15.7183 9.87483
1 11.1201 14.9301 9.85356
1 12.6992 15.7134 10.6581
1 13.4929 14.9197 10.6581
1 13.4809 15.6856 9.86726
1 12.6894 14.9247 9.86403
1 14.2866 15.7134 10.6581
1 15.0803 14.9197 10.6581
1 15.0638 15.7241 9.88626
1 14.2953 14.9126 9.86035
1 15.874 15.7134 10.6581
1 16.6677 14.9197 10.6581
1 16.6592 15.7155 9.83248
1 15.8656 14.8965 9.86573
1 17.4614 15.7134 10.6581
1 18.2551 14.9197 10.6581
1 18.2706 15.6989 9.84911
1 17.4659 14.928 9.86212
1 19.0488 15.7134 10.6581
1 19.8425 14.9197 10.6581
1 19.8347 15.6895 9.84423
1 19.0455 14.9124 9.86198
1 20.6362 15.7134 10.6581
1 21.4299 14.9197 10.6581
1 21.4247 15.6986 9.8623
1 20.6676 14.915 9.85864
1 22.2236 15.7134 10.6581
1 23.0173 14.9197 10.6581
1 23.0169 15.7073 9.85464
1 22.2331 14.9314 9.8485
1 23.811 15.7134 10.6581
1 24.6047 14.9197 10.6581
1 24.6129 15.7143 9.84946
1 23.8251 14.9139 9.86824
1 25.3984 15.7134 10.6581
1 26.1921 14.9197 10.6581
1 26.1659 15.6948 9.84514
1 25.41 14.9119 9.8463
1 26.9858 15.7134 10.6581
1 27.7795 14.9197 10.6581
1 27.7524 15.7376 9.87047
1 26.9836 14.8904 9.85889
1 28.5732 15.7134 10.6581
1 29.3669 14.9197 10.6581
1 29.3151 15.7314 9.8397
1 28.5478 14.9256 9.87002
1 30 14.126 10.6581
1 0.793701 13.3323 10.6581
1 0.821542 14.1456 9.85706
1 0.108043 13.3487 9.83303
1 1.5874 14.126 10.6581
1 2.3811 13.3323 10.6581
1 2.38487 14.1419 9.87514
1 1.59217 13.3632 9.86361
1 3.1748 14.126 10.6581
1 3.9685 13.3323 10.6581
1 3.98764 14.1076 9.85394
1 3.17556 13.3465 9.87034
1 4.7622 14.126 10.6581
1 5.5559 13.3323 10.6581
1 5.57181 14.1152 9.86393
1 4.77871 13.3393 9.84149
1 6.3496 14.126 10.6581
1 7.1433 13.3323 10.6581
1 7.18098 14.1017 9.86375
1 6.34249 13.3435 9.87366
1 7.93701 14.126 10.6581
1 8.73071 13.3323 10.6581
1 8.70386 14.1217 9.87899
1 7.93741 13.3573 9.84608
1 9.52441 14.126 10.6581
1 10.3181 13.3323 10.6581
1 10.3191 14.1092 9.88414
1 9.55005 13.3314 9.879
1 11.1118 14.126 10.6581
1 11.9055 13.3323 10.6581
1 11.9218 14.1182 9.87026
1 11.1082 13.3426 9.88044
1 12.6992 14.126 10.6581
1 13.4929 13.3323 10.6581
1 13.4746 14.1399 9.86909
1 12.7092 13.3312 9.85012
1 14.2866 14.126 10.6581
1 15.0803 13.3323 10.6581
1 15.1011 14.0872 9.86861
1 14.2858 13.327 9.85156
1 15.874 14.126 10.6581
1 16.6677 13.3323 10.6581
1 16.6753 14.1269 9.83891
1 15.88 13.3389 9.86746
1 17.4614 14.126 10.6581
1 18.2551 13.3323 10.6581
1 18.2406 14.1316 9.8638
1 17.4514 13.3483 9.84571
1 19.0488 14.126 10.6581
1 19.8425 13.3323 10.6581
1 19.8582 14.1348 9.8601
1 19.0387 13.3314 9.86876
1 20.6362 14.126 10.6581
1 21.4299 13.3323 10.6581
1 21.4421 14.0899 9.83275
1 20.6335 13.3095 9.85973
1 22.2236 14.126 10.6581
1 23.0173 13.3323 10.6581
1 22.9931 14.1308 9.84586
1 22.2262 13.325 9.8612
1 23.811 14.126 10.6581
1 24.6047 13.3323 10.6581
1 24.6142 14.1082 9.87688
1 23.7823 13.3242 9.88593
1 25.3984 14.126 10.6581
1 26.1921 13.3323 10.6581
1 26.189 14.1067 9.83589
1 25.4123 13.3482 9.86701
1 26.9858 14.126 10.6581
1 27.7795 13.3323 10.6581
1 27.7412 14.1201 9.85466
1 26.9732 13.3448 9.86518
1 28.5732 14.126 10.6581
1 29.3669 13.3323 10.6581
1 29.3022 14.1384 9.8205
1 28.5459 13.332 9.85722
1 30 12.5386 10.6581
1 0.793701 11.7449 10.6581
1 0.838753 12.5336 9.84936
1 0.0861297 11.7242 9.83314
1 1.5874 12.5386 10.6581
1 2.3811 11.7449 10.6581
1 2.38541 12.5381 9.85399
1 1.59279 11.7491 9.88004
1 3.1748 12.5386 10.6581
1 3.9685 11.7449 10.6581
1 3.97186 12.5381 9.89777
1 3.17969 11.7421 9.8799
1 4.7622 12.5386 10.6581
1 5.5559 11.7449 10.6581
1 5.55339 12.5376 9.85733
1 4.77858 11.739 9.84333
1 6.3496 12.5386 10.6581
1 7.1433 11.7449 10.6581
1 7.14658 12.5301 9.85609
1 6.34518 11.7684 9.86846
1 7.93701 12.5386 10.6581
1 8.73071 11.7449 10.6581
1 8.69981 12.5699 9.87746
1 7.92829 11.7271 9.87751
1 9.52441 12.5386 10.6581
1 10.3181 11.7449 10.6581
1 10.2902 12.5405 9.85191
1 9.51677 11.7387 9.85214
1 11.1118 12.5386 10.6581
1 11.9055 11.7449 10.6581
1 11.912 12.5334 9.88393
1 11.1038 11.7501 9.87849
1 12.6992 12.5386 10.6581
1 13.4929 11.7449 10.6581
1 13.4646 12.5046 9.84626
1 12.6936 11.7506 9.87069
1 14.2866 12.5386 10.6581
1 15.0803 11.7449 10.6581
1 15.07 12.5298 9.84644
1 14.2697 11.7422 9.86755
1 15.874 12.5386 10.6581
1 16.6677 11.7449 10.6581
1 16.6495 12.5079 9.89449
1 15.9034 11.7208 9.8543
1 17.4614 12.5386 10.6581
1 18.2551 11.7449 10.6581
1 18.2586 12.5398 9.86175
1 17.4646 11.7547 9.87148
1 19.0488 12.5386 10.6581
1 19.8425 11.7449 10.6581
1 19.8393 12.5417 9.87512
1 19.0387 11.733 9.86349
1 20.6362 12.5386 10.6581
1 21.4299 11.7449 10.6581
1 21.4409 12.5385 9.88227
1 20.6698 11.7623 9.8641
1 22.2236 12.5386 10.6581
1 23.0173 11.7449 10.6581
1 22.9916 12.5187 9.86837
1 22.2219 11.7245 9.8651
1 23.811 12.5386 10.6581
1 24.6047 11.7449 10.6581
1 24.6116 12.5463 9.87545
1 23.8011 11.7505 9.87185
1 25.3984 12.5386 10.6581
1 26.1921 11.7449 10.6581
1 26.1787 12.5321 9.8557
1 25.3929 11.7387 9.88193
1 26.9858 12.5386 10.6581
1 27.7795 11.7449 10.6581
1 27.7848 12.5099 9.87845
1 26.9617 11.7217 9.84218
1 28.5732 12.5386 10.6581
1 29.3669 11.7449 10.6581
1 29.3025 12.5461 9.85874
1 28.5273 11.7421 9.85881
1 30 10.9512 10.6581
1 0.793701 10.1575 10.6581
1 0.83391 10.9579 9.87509
1 0.0699154 10.1543 9.83096
1 1.5874 10.9512 10.6581
1 2.3811 10.1575 10.6581
1 2.41922 10.9471 9.86195
1 1.61434 10.1556 9.8511
1 3.1748 10.9512 10.6581
1 3.9685 10.1575 10.6581
1 3.97391 10.962 9.86851
1 3.18456 10.1667 9.86379
1 4.7622 10.9512 10.6581
1 5.5559 10.1575 10.6581
1 5.56266 10.9463 9.89091
1 4.75673 10.1543 9.86017
1 6.3496 10.9512 10.6581
1 7.1433 10.1575 10.6581
1 7.10629 10.9353 9.87486
1 6.35963 10.1554 9.87025
1 7.93701 10.9512 10.6581
1 8.73071 10.1575 10.6581
1 8.71962 10.9572 9.84168
1 7.95078 10.1381 9.87007
1 9.52441 10.9512 10.6581
1 10.3181 10.1575 10.6581
1 10.3347 10.9593 9.8551
1 9.54353 10.163 9.89119
1 11.1118 10.9512 10.6581
1 11.9055 10.1575 10.6581
1 11.9085 10.9432 9.86938
1 11.1163 10.1434 9.84266
1 12.6992 10.9512 10.6581
1 13.4929 10.1575 10.6581
1 13.5003 10.9297 9.86559
1 12.7172 10.1556 9.87421
1 14.2866 10.9512 10.6581
1 15.0803 10.1575 10.6581
1 15.0893 10.9309 9.87198
1 14.3104 10.1387 9.86574
1 15.874 10.9512 10.6581
1 16.6677 10.1575 10.6581
1 16.6489 10.9532 9.83512
1 15.8644 10.1411 9.8729
1 17.4614 10.9512 10.6581
1 18.2551 10.1575 10.6581
1 18.235 10.939 9.87381
1 17.4356 10.1321 9.85371
1 19.0488 10.9512 10.6581
1 19.8425 10.1575 10.6581
1 19.8554 10.9638 9.83806
1 19.0527 10.1495 9.88238
1 20.6362 10.9512 10.6581
1 21.4299 10.1575 10.6581
1 21.4272 10.9307 9.86032
1 20.6249 10.1406 9.86393
1 22.2236 10.9512 10.6581
1 23.0173 10.1575 10.6581
1 22.9967 10.9077 9.86191
1 22.2077 10.1555 9.85719
1 23.811 10.9512 10.6581
1 24.6047 10.1575 10.6581
1 24.5959 10.9666 9.86765
1 23.8012 10.1595 9.88146
1 25.3984 10.9512 10.6581
1 26.1921 10.1575 10.6581
1 26.2002 10.9497 9.84135
1 25.3935 10.1602 9.85615
1 26.9858 10.9512 10.6581
1 27.7795 10.1575 10.6581
1 27.7572 10.9407 9.85262
1 26.9848 10.1575 9.87113
1 28.5732 10.9512 10.6581
1 29.3669 10.1575 10.6581
1 29.2861 10.97 9.82928
1 28.5261 10.1432 9.83351
1 30 9.36379 10.6581
1 0.793701 8.57009 10.6581
1 0.82345 9.36661 9.85083
1 0.0998138 8.59764 9.82193
1 1.5874 9.36379 10.6581
1 2.3811 8.57009 10.6581
1 2.36124 9.34747 9.86987
1 1.58938 8.57543 9.84288
1 3.1748 9.36379 10.6581
1 3.9685 8.57009 10.6581
1 3.99616 9.38323 9.85902
1 3.19166 8.58254 9.86219
1 4.7622 9.36379 10.6581
1 5.5559 8.57009 10.6581
1 5.54209 9.36298 9.83596
1 4.77295 8.59112 9.8819
1 6.3496 9.36379 10.6581
1 7.1433 8.57009 10.6581
1 7.14011 9.38287 9.84959
1 6.31933 8.57485 9.86103
1 7.93701 9.36379 10.6581
1 8.73071 8.57009 10.6581
1 8.74167 9.3443 9.8927
1 7.94024 8.57502 9.85412
1 9.52441 9.36379 10.6581
1 10.3181 8.57009 10.6581
1 10.3039 9.33873 9.87313
1 9.49695 8.56526 9.86527
1 11.1118 9.36379 10.6581
1 11.9055 8.57009 10.6581
1 11.8979 9.37508 9.90025
1 11.0976 8.57018 9.88001
1 12.6992 9.36379 10.6581
1 13.4929 8.57009 10.6581
1 13.4794 9.367 9.86464
1 12.6835 8.56969 9.85076
1 14.2866 9.36379 10.6581
1 15.0803 8.57009 10.6581
1 15.0904 9.3466 9.84629
1 14.2763 8.55734 9.89145
1 15.874 9.36379 10.6581
1 16.6677 8.57009 10.6581
1 16.6643 9.35513 9.84661
1 15.8967 8.54871 9.86847
1 17.4614 9.36379 10.6581
1 18.2551 8.57009 10.6581
1 18.2493 9.36153 9.85206
1 17.4584 8.5883 9.83044
1 19.0488 9.36379 10.6581
1 19.8425 8.57009 10.6581
1 19.8549 9.36678 9.86513
1 19.0731 8.58264 9.86499
1 20.6362 9.36379 10.6581
1 21.4299 8.57009 10.6581
1 21.4241 9.363 9.87662
1 20.6205 8.58721 9.88775
1 22.2236 9.36379 10.6581
1 23.0173 8.57009 10.6581
1 23.0187 9.34648 9.85546
1 22.2456 8.57202 9.85535
1 23.811 9.36379 10.6581
1 24.6047 8.57009 10.6581
1 24.6115 9.35605 9.89258
1 23.8134 8.55911 9.86261
1 25.3984 9.36379 10.6581
1 26.1921 8.57009 10.6581
1 26.1835 9.37238 9.89369
1 25.4083 8.55756 9.87423
1 26.9858 9.36379 10.6581
1 27.7795 8.57009 10.6581
1 27.7585 9.35834 9.83979
1 26.9588 8.55892 9.86141
1 28.5732 9.36379 10.6581
1 29.3669 8.57009 10.6581
1 29.2879 9.36566 9.83692
1 28.5566 8.55482 9.85758
1 30 7.77639 10.6581
1 0.793701 6.98268 10.6581
1 0.816604 7.80328 9.85799
1 0.0798342 6.98008 9.81574
1 1.5874 7.77639 10.6581
1 2.3811 6.98268 10.6581
1 2.38 7.78031 9.86121
1 1.56526 6.99806 9.85709
1 3.1748 7.77639 10.6581
1 3.9685 6.98268 10.6581
1 3.98324 7.78238 9.86904
1 3.17557 6.99964 9.89778
1 4.7622 7.77639 10.6581
1 5.5559 6.98268 10.6581
1 5.5635 7.77764 9.87052
1 4.7934 6.97748 9.88818
1 6.3496 7.77639 10.6581
1 7.1433 6.98268 10.6581
1 7.14195 7.78202 9.85444
1 6.3409 6.99194 9.85049
1 7.93701 7.77639 10.6581
1 8.73071 6.98268 10.6581
1 8.70679 7.77801 9.8562
1 7.90116 6.98543 9.86324
1 9.52441 7.77639 10.6581
1 10.3181 6.98268 10.6581
1 10.2985 7.76549 9.88471
1 9.53473 6.97602 9.85323
1 11.1118 7.77639 10.6581
1 11.9055 6.98268 10.6581
1 11.8833 7.79153 9.86518
1 11.1101 7.00148 9.84568
1 12.6992 7.77639 10.6581
1 13.4929 6.98268 10.6581
1 13.475 7.7975 9.86936
1 12.7064 7.00492 9.88088
1 14.2866 7.77639 10.6581
1 15.0803 6.98268 10.6581
1 15.1124 7.7819 9.88912
1 14.2902 6.98476 9.86503
1 15.874 7.77639 10.6581
1 16.6677 6.98268 10.6581
1 16.6537 7.7677 9.86285
1 15.8514 6.96736 9.90187
1 17.4614 7.77639 10.6581
1 18.2551 6.98268 10.6581
1 18.2675 7.78032 9.86342
1 17.4437 7.00032 9.85161
1 19.0488 7.77639 10.6581
1 19.8425 6.98268 10.6581
1 19.8331 7.78956 9.8581
1 19.0338 6.96512 9.89345
1 20.6362 7.77639 10.6581
1 21.4299 6.98268 10.6581
1 21.4236 7.78024 9.86737
1 20.6375 6.98176 9.85228
1 22.2236 7.77639 10.6581
1 23.0173 6.98268 10.6581
1 23.0299 7.79076 9.84659
1 22.2335 6.98119 9.85754
1 23.811 7.77639 10.6581
1 24.6047 6.98268 10.6581
1 24.5763 7.76351 9.85535
1 23.7782 6.97843 9.87467
1 25.3984 7.77639 10.6581
1 26.1921 6.98268 10.6581
1 26.1842 7.78217 9.86763
1 25.3988 6.95894 9.86022
1 26.9858 7.77639 10.6581
1 27.7795 6.98268 10.6581
1 27.756 7.76573 9.86081
1 27 6.98837 9.87639
1 28.5732 7.77639 10.6581
1 29.3669 6.98268 10.6581
1 29.2913 7.77153 9.81281
1 28.548 6.99479 9.85125
1 30 6.18898 10.6581
1 0.793701 5.39528 10.6581
1 0.829368 6.17942 9.84459
1 0.100047 5.41523 9.83729
1 1.5874 6.18898 10.6581
1 2.3811 5.39528 10.6581
1 2.36503 6.16988 9.8536
1 1.6244 5.39634 9.87444
1 3.1748 6.18898 10.6581
1 3.9685 5.39528 10.6581
1 3.96276 6.23305 9.88427
1 3.18418 5.38985 9.86361
1 4.7622 6.18898 10.6581
1 5.5559 5.39528 10.6581
1 5.54622 6.20553 9.86326
1 4.77991 5.39212 9.83797
1 6.3496 6.18898 10.6581
1 7.1433 5.39528 10.6581
1 7.15383 6.18838 9.86252
1 6.35238 5.39253 9.83731
1 7.93701 6.18898 10.6581
1 8.73071 5.39528 10.6581
1 8.71805 6.18585 9.84864
1 7.93929 5.39503 9.87323
1 9.52441 6.18898 10.6581