9376
Atoms. Timestep: 4000000
1 0.75 3.55271e-15 10.7142
1 1.5437 29.2063 10.7142
1 1.58791 29.9423 9.88189
1 0.792225 29.1762 9.8926
1 2.3374 3.55271e-15 10.7142
1 3.1311 29.2063 10.7142
1 3.14405 29.9336 9.87277
1 2.34861 29.2045 9.91095
1 3.9248 3.55271e-15 10.7142
1 4.7185 29.2063 10.7142
1 4.73976 29.941 9.89123
1 3.92343 29.1864 9.90613
1 5.5122 3.55271e-15 10.7142
1 6.3059 29.2063 10.7142
1 6.30705 29.9326 9.88119
1 5.52801 29.1513 9.94002
1 7.0996 3.55271e-15 10.7142
1 7.8933 29.2063 10.7142
1 7.88754 29.9078 9.87778
1 7.08963 29.1585 9.90715
1 8.68701 3.55271e-15 10.7142
1 9.48071 29.2063 10.7142
1 9.47778 29.9042 9.89637
1 8.69893 29.1825 9.90614
1 10.2744 3.55271e-15 10.7142
1 11.0681 29.2063 10.7142
1 11.0728 29.9447 9.87537
1 10.2626 29.1704 9.96175
1 11.8618 3.55271e-15 10.7142
1 12.6555 29.2063 10.7142
1 12.6534 29.9264 9.89037
1 11.8859 29.1759 9.90079
1 13.4492 3.55271e-15 10.7142
1 14.2429 29.2063 10.7142
1 14.2229 29.9415 9.9004
1 13.4513 29.1879 9.92841
1 15.0366 3.55271e-15 10.7142
1 15.8303 29.2063 10.7142
1 15.801 29.9407 9.86799
1 15.0477 29.1927 9.93415
1 16.624 3.55271e-15 10.7142
1 17.4177 29.2063 10.7142
1 17.4146 29.9184 9.87623
1 16.6096 29.1912 9.91259
1 18.2114 3.55271e-15 10.7142
1 19.0051 29.2063 10.7142
1 18.9857 29.9309 9.88139
1 18.2135 29.1403 9.90235
1 19.7988 3.55271e-15 10.7142
1 20.5925 29.2063 10.7142
1 20.5596 29.9304 9.88468
1 19.7821 29.1849 9.90492
1 21.3862 3.55271e-15 10.7142
1 22.1799 29.2063 10.7142
1 22.1967 29.9255 9.89395
1 21.3708 29.1902 9.91014
1 22.9736 3.55271e-15 10.7142
1 23.7673 29.2063 10.7142
1 23.7749 29.9402 9.88387
1 22.9553 29.1886 9.9298
1 24.561 3.55271e-15 10.7142
1 25.3547 29.2063 10.7142
1 25.3746 29.9368 9.91952
1 24.5764 29.1682 9.89747
1 26.1484 3.55271e-15 10.7142
1 26.9421 29.2063 10.7142
1 26.9557 29.9327 9.89409
1 26.1459 29.1793 9.91876
1 27.7358 3.55271e-15 10.7142
1 28.5295 29.2063 10.7142
1 28.5194 29.9303 9.91099
1 27.7323 29.1413 9.90868
1 29.3232 3.55271e-15 10.7142
1 0.116919 29.2063 10.7142
1 0.044374 29.9406 9.86961
1 29.2812 29.1784 9.92213
1 0.75 28.4126 10.7142
1 1.5437 27.6189 10.7142
1 1.55043 28.4191 9.92478
1 0.820054 27.6106 9.89096
1 2.3374 28.4126 10.7142
1 3.1311 27.6189 10.7142
1 3.11128 28.3937 9.9017
1 2.33773 27.6333 9.92175
1 3.9248 28.4126 10.7142
1 4.7185 27.6189 10.7142
1 4.71772 28.3971 9.92799
1 3.92946 27.6346 9.92844
1 5.5122 28.4126 10.7142
1 6.3059 27.6189 10.7142
1 6.30584 28.3864 9.90528
1 5.51318 27.6304 9.93245
1 7.0996 28.4126 10.7142
1 7.8933 27.6189 10.7142
1 7.92104 28.3738 9.91862
1 7.11219 27.6323 9.90238
1 8.68701 28.4126 10.7142
1 9.48071 27.6189 10.7142
1 9.49073 28.4138 9.91276
1 8.7202 27.6019 9.9051
1 10.2744 28.4126 10.7142
1 11.0681 27.6189 10.7142
1 11.0744 28.3965 9.94886
1 10.26 27.597 9.92373
1 11.8618 28.4126 10.7142
1 12.6555 27.6189 10.7142
1 12.6586 28.3766 9.90218
1 11.9035 27.6178 9.92452
1 13.4492 28.4126 10.7142
1 14.2429 27.6189 10.7142
1 14.2397 28.4134 9.92459
1 13.454 27.6 9.94054
1 15.0366 28.4126 10.7142
1 15.8303 27.6189 10.7142
1 15.8399 28.385 9.91363
1 15.0526 27.6124 9.91973
1 16.624 28.4126 10.7142
1 17.4177 27.6189 10.7142
1 17.4156 28.3794 9.90969
1 16.6473 27.6005 9.91696
1 18.2114 28.4126 10.7142
1 19.0051 27.6189 10.7142
1 18.9919 28.378 9.94235
1 18.2091 27.6204 9.89922
1 19.7988 28.4126 10.7142
1 20.5925 27.6189 10.7142
1 20.5774 28.4001 9.9362
1 19.7841 27.6129 9.92123
1 21.3862 28.4126 10.7142
1 22.1799 27.6189 10.7142
1 22.1533 28.3992 9.92765
1 21.3545 27.5993 9.92494
1 22.9736 28.4126 10.7142
1 23.7673 27.6189 10.7142
1 23.754 28.3992 9.91047
1 22.9834 27.603 9.93408
1 24.561 28.4126 10.7142
1 25.3547 27.6189 10.7142
1 25.3634 28.381 9.90908
1 24.5586 27.6106 9.9089
1 26.1484 28.4126 10.7142
1 26.9421 27.6189 10.7142
1 26.9199 28.3715 9.94349
1 26.1559 27.5988 9.90236
1 27.7358 28.4126 10.7142
1 28.5295 27.6189 10.7142
1 28.5258 28.3957 9.91542
1 27.7266 27.6201 9.92673
1 29.3232 28.4126 10.7142
1 0.116919 27.6189 10.7142
1 0.0462484 28.3933 9.90446
1 29.3084 27.6079 9.9357
1 0.75 26.8252 10.7142
1 1.5437 26.0315 10.7142
1 1.56867 26.7795 9.90644
1 0.822684 26.0178 9.91731
1 2.3374 26.8252 10.7142
1 3.1311 26.0315 10.7142
1 3.16939 26.8195 9.91441
1 2.37633 26.0111 9.89699
1 3.9248 26.8252 10.7142
1 4.7185 26.0315 10.7142
1 4.70762 26.816 9.91642
1 3.91017 26.0117 9.91655
1 5.5122 26.8252 10.7142
1 6.3059 26.0315 10.7142
1 6.3269 26.8185 9.94337
1 5.48588 26.0291 9.92589
1 7.0996 26.8252 10.7142
1 7.8933 26.0315 10.7142
1 7.90334 26.8308 9.92646
1 7.10337 26.0164 9.92293
1 8.68701 26.8252 10.7142
1 9.48071 26.0315 10.7142
1 9.50001 26.8189 9.92299
1 8.67187 26.0422 9.91591
1 10.2744 26.8252 10.7142
1 11.0681 26.0315 10.7142
1 11.0979 26.8188 9.92562
1 10.2588 26.0197 9.93625
1 11.8618 26.8252 10.7142
1 12.6555 26.0315 10.7142
1 12.6576 26.8458 9.94056
1 11.8525 26.0334 9.91569
1 13.4492 26.8252 10.7142
1 14.2429 26.0315 10.7142
1 14.2415 26.834 9.92385
1 13.4442 26.0517 9.91317
1 15.0366 26.8252 10.7142
1 15.8303 26.0315 10.7142
1 15.8325 26.8152 9.93368
1 15.0198 26.0344 9.92511
1 16.624 26.8252 10.7142
1 17.4177 26.0315 10.7142
1 17.446 26.8061 9.9354
1 16.6176 26.0494 9.93636
1 18.2114 26.8252 10.7142
1 19.0051 26.0315 10.7142
1 18.9901 26.7933 9.93446
1 18.198 26.024 9.92461
1 19.7988 26.8252 10.7142
1 20.5925 26.0315 10.7142
1 20.5833 26.8044 9.91255
1 19.7862 26.0401 9.90317
1 21.3862 26.8252 10.7142
1 22.1799 26.0315 10.7142
1 22.1899 26.8199 9.91479
1 21.4096 26.0277 9.92859
1 22.9736 26.8252 10.7142
1 23.7673 26.0315 10.7142
1 23.7515 26.7974 9.9237
1 22.9735 26.0364 9.91102
1 24.561 26.8252 10.7142
1 25.3547 26.0315 10.7142
1 25.3585 26.8453 9.90807
1 24.5556 26.0253 9.9269
1 26.1484 26.8252 10.7142
1 26.9421 26.0315 10.7142
1 26.9295 26.827 9.90889
1 26.14 26.0237 9.90496
1 27.7358 26.8252 10.7142
1 28.5295 26.0315 10.7142
1 28.519 26.8196 9.92824
1 27.7276 26.0355 9.92583
1 29.3232 26.8252 10.7142
1 0.116919 26.0315 10.7142
1 0.0566878 26.8179 9.88019
1 29.2825 26.0332 9.90733
1 0.75 25.2378 10.7142
1 1.5437 24.4441 10.7142
1 1.59314 25.2303 9.91977
1 0.821237 24.4506 9.87713
1 2.3374 25.2378 10.7142
1 3.1311 24.4441 10.7142
1 3.16998 25.2173 9.91657
1 2.36048 24.4121 9.9286
1 3.9248 25.2378 10.7142
1 4.7185 24.4441 10.7142
1 4.72088 25.227 9.92979
1 3.94427 24.4591 9.9242
1 5.5122 25.2378 10.7142
1 6.3059 24.4441 10.7142
1 6.29916 25.2407 9.90092
1 5.53586 24.4219 9.90061
1 7.0996 25.2378 10.7142
1 7.8933 24.4441 10.7142
1 7.90671 25.2265 9.91754
1 7.10142 24.4466 9.92824
1 8.68701 25.2378 10.7142
1 9.48071 24.4441 10.7142
1 9.47093 25.2417 9.93274
1 8.68218 24.4653 9.9234
1 10.2744 25.2378 10.7142
1 11.0681 24.4441 10.7142
1 11.0759 25.2485 9.89631
1 10.2913 24.4458 9.91009
1 11.8618 25.2378 10.7142
1 12.6555 24.4441 10.7142
1 12.6701 25.2574 9.93949
1 11.8646 24.4408 9.91016
1 13.4492 25.2378 10.7142
1 14.2429 24.4441 10.7142
1 14.2308 25.2483 9.90793
1 13.4549 24.4726 9.9168
1 15.0366 25.2378 10.7142
1 15.8303 24.4441 10.7142
1 15.8122 25.2386 9.89292
1 15.0352 24.45 9.92836
1 16.624 25.2378 10.7142
1 17.4177 24.4441 10.7142
1 17.4477 25.2501 9.92051
1 16.6214 24.4365 9.91769
1 18.2114 25.2378 10.7142
1 19.0051 24.4441 10.7142
1 19.0077 25.2102 9.93782
1 18.2061 24.4451 9.93393
1 19.7988 25.2378 10.7142
1 20.5925 24.4441 10.7142
1 20.5589 25.2085 9.90287
1 19.8065 24.4285 9.93133
1 21.3862 25.2378 10.7142
1 22.1799 24.4441 10.7142
1 22.1963 25.2426 9.92621
1 21.3725 24.4586 9.92905
1 22.9736 25.2378 10.7142
1 23.7673 24.4441 10.7142
1 23.7839 25.2147 9.90669
1 22.9846 24.4542 9.93804
1 24.561 25.2378 10.7142
1 25.3547 24.4441 10.7142
1 25.348 25.2214 9.93766
1 24.5441 24.4484 9.92618
1 26.1484 25.2378 10.7142
1 26.9421 24.4441 10.7142
1 26.9237 25.2303 9.91127
1 26.1538 24.4399 9.92825
1 27.7358 25.2378 10.7142
1 28.5295 24.4441 10.7142
1 28.5258 25.2197 9.92447
1 27.7138 24.4669 9.91734
1 29.3232 25.2378 10.7142
1 0.116919 24.4441 10.7142
1 0.0304878 25.2233 9.8879
1 29.3067 24.4399 9.90348
1 0.75 23.6504 10.7142
1 1.5437 22.8567 10.7142
1 1.57743 23.641 9.91663
1 0.803663 22.8474 9.89085
1 2.3374 23.6504 10.7142
1 3.1311 22.8567 10.7142
1 3.14319 23.6265 9.91224
1 2.34439 22.8583 9.92395
1 3.9248 23.6504 10.7142
1 4.7185 22.8567 10.7142
1 4.73438 23.6393 9.92014
1 3.9268 22.836 9.89441
1 5.5122 23.6504 10.7142
1 6.3059 22.8567 10.7142
1 6.33121 23.6775 9.90271
1 5.53336 22.8866 9.92182
1 7.0996 23.6504 10.7142
1 7.8933 22.8567 10.7142
1 7.89035 23.6533 9.94795
1 7.09322 22.8536 9.93426
1 8.68701 23.6504 10.7142
1 9.48071 22.8567 10.7142
1 9.4696 23.6721 9.90523
1 8.69796 22.8662 9.9178
1 10.2744 23.6504 10.7142
1 11.0681 22.8567 10.7142
1 11.0482 23.6514 9.92945
1 10.2618 22.8769 9.92792
1 11.8618 23.6504 10.7142
1 12.6555 22.8567 10.7142
1 12.6491 23.6285 9.92986
1 11.8631 22.8733 9.90467
1 13.4492 23.6504 10.7142
1 14.2429 22.8567 10.7142
1 14.2417 23.6493 9.90987
1 13.4534 22.8645 9.89796
1 15.0366 23.6504 10.7142
1 15.8303 22.8567 10.7142
1 15.8324 23.6425 9.92011
1 15.0479 22.835 9.90597
1 16.624 23.6504 10.7142
1 17.4177 22.8567 10.7142
1 17.4181 23.6327 9.91476
1 16.6378 22.8507 9.94565
1 18.2114 23.6504 10.7142
1 19.0051 22.8567 10.7142
1 19.0128 23.6472 9.89753
1 18.2163 22.8572 9.94835
1 19.7988 23.6504 10.7142
1 20.5925 22.8567 10.7142
1 20.5997 23.6123 9.95825
1 19.805 22.8651 9.90388
1 21.3862 23.6504 10.7142
1 22.1799 22.8567 10.7142
1 22.1628 23.6619 9.95087
1 21.3828 22.8388 9.93954
1 22.9736 23.6504 10.7142
1 23.7673 22.8567 10.7142
1 23.7815 23.6425 9.91733
1 22.9868 22.8799 9.9214
1 24.561 23.6504 10.7142
1 25.3547 22.8567 10.7142
1 25.3588 23.6373 9.92878
1 24.5677 22.8733 9.93486
1 26.1484 23.6504 10.7142
1 26.9421 22.8567 10.7142
1 26.9343 23.6589 9.95264
1 26.1661 22.8648 9.90704
1 27.7358 23.6504 10.7142
1 28.5295 22.8567 10.7142
1 28.4996 23.6493 9.94055
1 27.7025 22.8846 9.93925
1 29.3232 23.6504 10.7142
1 0.116919 22.8567 10.7142
1 0.0641465 23.6105 9.89707
1 29.2872 22.8723 9.92845
1 0.75 22.063 10.7142
1 1.5437 21.2693 10.7142
1 1.53834 22.0514 9.90303
1 0.807608 21.2853 9.87161
1 2.3374 22.063 10.7142
1 3.1311 21.2693 10.7142
1 3.13326 22.0791 9.93997
1 2.35042 21.2967 9.90563
1 3.9248 22.063 10.7142
1 4.7185 21.2693 10.7142
1 4.74393 22.0678 9.90243
1 3.94737 21.2861 9.92526
1 5.5122 22.063 10.7142
1 6.3059 21.2693 10.7142
1 6.30795 22.0296 9.93546
1 5.51163 21.2491 9.9054
1 7.0996 22.063 10.7142
1 7.8933 21.2693 10.7142
1 7.9066 22.0808 9.93527
1 7.07963 21.2519 9.93028
1 8.68701 22.063 10.7142
1 9.48071 21.2693 10.7142
1 9.49281 22.0502 9.91076
1 8.67586 21.2579 9.90184
1 10.2744 22.063 10.7142
1 11.0681 21.2693 10.7142
1 11.069 22.0696 9.90413
1 10.2583 21.2678 9.90966
1 11.8618 22.063 10.7142
1 12.6555 21.2693 10.7142
1 12.6511 22.0688 9.92239
1 11.8694 21.2879 9.92648
1 13.4492 22.063 10.7142
1 14.2429 21.2693 10.7142
1 14.236 22.0497 9.91722
1 13.4562 21.2736 9.89756
1 15.0366 22.063 10.7142
1 15.8303 21.2693 10.7142
1 15.8465 22.0781 9.91594
1 15.0644 21.2516 9.89208
1 16.624 22.063 10.7142
1 17.4177 21.2693 10.7142
1 17.4128 22.077 9.94063
1 16.6313 21.2688 9.90884
1 18.2114 22.063 10.7142
1 19.0051 21.2693 10.7142
1 18.9923 22.0454 9.92847
1 18.1944 21.2734 9.9342
1 19.7988 22.063 10.7142
1 20.5925 21.2693 10.7142
1 20.5965 22.0912 9.90834
1 19.8009 21.2677 9.93335
1 21.3862 22.063 10.7142
1 22.1799 21.2693 10.7142
1 22.1836 22.0621 9.94394
1 21.374 21.2914 9.9268
1 22.9736 22.063 10.7142
1 23.7673 21.2693 10.7142
1 23.76 22.0479 9.90222
1 22.9771 21.2649 9.9128
1 24.561 22.063 10.7142
1 25.3547 21.2693 10.7142
1 25.3467 22.0538 9.91511
1 24.5487 21.2794 9.9176
1 26.1484 22.063 10.7142
1 26.9421 21.2693 10.7142
1 26.9165 22.0593 9.89705
1 26.1591 21.2686 9.94865
1 27.7358 22.063 10.7142
1 28.5295 21.2693 10.7142
1 28.519 22.0711 9.91347
1 27.7216 21.27 9.92147
1 29.3232 22.063 10.7142
1 0.116919 21.2693 10.7142
1 0.0283763 22.0864 9.88905
1 29.2997 21.2602 9.9381
1 0.75 20.4756 10.7142
1 1.5437 19.6819 10.7142
1 1.58243 20.4858 9.90012
1 0.822882 19.6936 9.8816
1 2.3374 20.4756 10.7142
1 3.1311 19.6819 10.7142
1 3.12922 20.4847 9.9339
1 2.34842 19.6622 9.92773
1 3.9248 20.4756 10.7142
1 4.7185 19.6819 10.7142
1 4.71166 20.4876 9.9395
1 3.92177 19.6696 9.90675
1 5.5122 20.4756 10.7142
1 6.3059 19.6819 10.7142
1 6.29081 20.4581 9.91988
1 5.48441 19.6877 9.91611
1 7.0996 20.4756 10.7142
1 7.8933 19.6819 10.7142
1 7.89538 20.4689 9.91873
1 7.08892 19.6923 9.89656
1 8.68701 20.4756 10.7142
1 9.48071 19.6819 10.7142
1 9.44877 20.487 9.91202
1 8.66824 19.7018 9.90686
1 10.2744 20.4756 10.7142
1 11.0681 19.6819 10.7142
1 11.0928 20.4907 9.91799
1 10.2675 19.7091 9.91848
1 11.8618 20.4756 10.7142
1 12.6555 19.6819 10.7142
1 12.6673 20.5 9.94069
1 11.8497 19.6946 9.92414
1 13.4492 20.4756 10.7142
1 14.2429 19.6819 10.7142
1 14.2207 20.4793 9.91517
1 13.4405 19.6951 9.89913
1 15.0366 20.4756 10.7142
1 15.8303 19.6819 10.7142
1 15.8343 20.4794 9.9172
1 15.0351 19.6927 9.9246
1 16.624 20.4756 10.7142
1 17.4177 19.6819 10.7142
1 17.4407 20.4732 9.93559
1 16.6162 19.6744 9.91014
1 18.2114 20.4756 10.7142
1 19.0051 19.6819 10.7142
1 18.9969 20.4725 9.90967
1 18.2156 19.69 9.9278
1 19.7988 20.4756 10.7142
1 20.5925 19.6819 10.7142
1 20.5971 20.4556 9.92051
1 19.7795 19.6797 9.93557
1 21.3862 20.4756 10.7142
1 22.1799 19.6819 10.7142
1 22.1855 20.4695 9.93201
1 21.3806 19.6559 9.90042
1 22.9736 20.4756 10.7142
1 23.7673 19.6819 10.7142
1 23.7727 20.4806 9.92219
1 22.9533 19.7012 9.94393
1 24.561 20.4756 10.7142
1 25.3547 19.6819 10.7142
1 25.3482 20.4683 9.92884
1 24.5799 19.677 9.93882
1 26.1484 20.4756 10.7142
1 26.9421 19.6819 10.7142
1 26.9257 20.4558 9.94471
1 26.0977 19.6879 9.92395
1 27.7358 20.4756 10.7142
1 28.5295 19.6819 10.7142
1 28.5033 20.4568 9.8922
1 27.7252 19.6721 9.93943
1 29.3232 20.4756 10.7142
1 0.116919 19.6819 10.7142
1 0.05824 20.4829 9.89251
1 29.289 19.6714 9.92723
1 0.75 18.8882 10.7142
1 1.5437 18.0945 10.7142
1 1.56178 18.8682 9.93584
1 0.820604 18.0774 9.86506
1 2.3374 18.8882 10.7142
1 3.1311 18.0945 10.7142
1 3.13279 18.8967 9.92762
1 2.35272 18.0783 9.90975
1 3.9248 18.8882 10.7142
1 4.7185 18.0945 10.7142
1 4.73959 18.882 9.90495
1 3.91848 18.1114 9.94178
1 5.5122 18.8882 10.7142
1 6.3059 18.0945 10.7142
1 6.31445 18.8983 9.91506
1 5.53266 18.0881 9.919
1 7.0996 18.8882 10.7142
1 7.8933 18.0945 10.7142
1 7.89894 18.8965 9.90686
1 7.09432 18.1328 9.90225
1 8.68701 18.8882 10.7142
1 9.48071 18.0945 10.7142
1 9.4845 18.8964 9.91028
1 8.67734 18.1115 9.93161
1 10.2744 18.8882 10.7142
1 11.0681 18.0945 10.7142
1 11.0575 18.8944 9.92259
1 10.266 18.0991 9.93918
1 11.8618 18.8882 10.7142
1 12.6555 18.0945 10.7142
1 12.6614 18.8864 9.92001
1 11.8434 18.1072 9.92322
1 13.4492 18.8882 10.7142
1 14.2429 18.0945 10.7142
1 14.2431 18.8916 9.9015
1 13.4419 18.089 9.90493
1 15.0366 18.8882 10.7142
1 15.8303 18.0945 10.7142
1 15.8314 18.8767 9.91748
1 15.0179 18.1012 9.94115
1 16.624 18.8882 10.7142
1 17.4177 18.0945 10.7142
1 17.3772 18.8773 9.93341
1 16.593 18.0753 9.9162
1 18.2114 18.8882 10.7142
1 19.0051 18.0945 10.7142
1 18.976 18.8726 9.93029
1 18.2106 18.0765 9.91977
1 19.7988 18.8882 10.7142
1 20.5925 18.0945 10.7142
1 20.5727 18.8815 9.92239
1 19.8081 18.1007 9.92562
1 21.3862 18.8882 10.7142
1 22.1799 18.0945 10.7142
1 22.1617 18.895 9.93534
1 21.3953 18.0883 9.8857
1 22.9736 18.8882 10.7142
1 23.7673 18.0945 10.7142
1 23.7549 18.8985 9.9125
1 22.9545 18.1086 9.92389
1 24.561 18.8882 10.7142
1 25.3547 18.0945 10.7142
1 25.3377 18.8772 9.93245
1 24.5696 18.1071 9.89507
1 26.1484 18.8882 10.7142
1 26.9421 18.0945 10.7142
1 26.9118 18.8927 9.94276
1 26.1544 18.0917 9.92117
1 27.7358 18.8882 10.7142
1 28.5295 18.0945 10.7142
1 28.4995 18.8808 9.91942
1 27.7337 18.0891 9.94609
1 29.3232 18.8882 10.7142
1 0.116919 18.0945 10.7142
1 0.0657892 18.8893 9.87565
1 29.2968 18.0937 9.89285
1 0.75 17.3008 10.7142
1 1.5437 16.5071 10.7142
1 1.56522 17.3036 9.90893
1 0.79271 16.4788 9.86954
1 2.3374 17.3008 10.7142
1 3.1311 16.5071 10.7142
1 3.15655 17.3037 9.93227
1 2.37697 16.5315 9.91813
1 3.9248 17.3008 10.7142
1 4.7185 16.5071 10.7142
1 4.72888 17.2998 9.95268
1 3.91924 16.5238 9.92335
1 5.5122 17.3008 10.7142
1 6.3059 16.5071 10.7142
1 6.31758 17.3102 9.93122
1 5.53542 16.4963 9.92208
1 7.0996 17.3008 10.7142
1 7.8933 16.5071 10.7142
1 7.88416 17.3001 9.92206
1 7.14508 16.5295 9.92964
1 8.68701 17.3008 10.7142
1 9.48071 16.5071 10.7142
1 9.4651 17.3214 9.92064
1 8.67303 16.5161 9.92535
1 10.2744 17.3008 10.7142
1 11.0681 16.5071 10.7142
1 11.0272 17.2889 9.92056
1 10.2626 16.4929 9.9255
1 11.8618 17.3008 10.7142
1 12.6555 16.5071 10.7142
1 12.6778 17.2666 9.91105
1 11.8487 16.5027 9.90733
1 13.4492 17.3008 10.7142
1 14.2429 16.5071 10.7142
1 14.26 17.3071 9.93524
1 13.4677 16.4957 9.91826
1 15.0366 17.3008 10.7142
1 15.8303 16.5071 10.7142
1 15.8282 17.289 9.94912
1 15.047 16.5024 9.9342
1 16.624 17.3008 10.7142
1 17.4177 16.5071 10.7142
1 17.3882 17.2845 9.95317
1 16.6288 16.4898 9.93762
1 18.2114 17.3008 10.7142
1 19.0051 16.5071 10.7142
1 19.0013 17.2968 9.92232
1 18.1956 16.499 9.93233
1 19.7988 17.3008 10.7142
1 20.5925 16.5071 10.7142
1 20.5687 17.2851 9.91881
1 19.7947 16.4902 9.91517
1 21.3862 17.3008 10.7142
1 22.1799 16.5071 10.7142
1 22.1935 17.3114 9.92104
1 21.3903 16.5282 9.93053
1 22.9736 17.3008 10.7142
1 23.7673 16.5071 10.7142
1 23.7615 17.3028 9.91798
1 22.9847 16.5082 9.92729
1 24.561 17.3008 10.7142
1 25.3547 16.5071 10.7142
1 25.3642 17.3066 9.91982
1 24.5553 16.5184 9.91459
1 26.1484 17.3008 10.7142
1 26.9421 16.5071 10.7142
1 26.9391 17.2997 9.93106
1 26.1453 16.5102 9.92595
1 27.7358 17.3008 10.7142
1 28.5295 16.5071 10.7142
1 28.4805 17.3237 9.91684
1 27.7273 16.5113 9.92426
1 29.3232 17.3008 10.7142
1 0.116919 16.5071 10.7142
1 0.0208495 17.2925 9.87486
1 29.2901 16.4889 9.90488
1 0.75 15.7134 10.7142
1 1.5437 14.9197 10.7142
1 1.58696 15.7094 9.92937
1 0.793515 14.8791 9.88699
1 2.3374 15.7134 10.7142
1 3.1311 14.9197 10.7142
1 3.14003 15.7366 9.93846
1 2.36835 14.9188 9.93003
1 3.9248 15.7134 10.7142
1 4.7185 14.9197 10.7142
1 4.76074 15.726 9.92525
1 3.95266 14.9577 9.92257
1 5.5122 15.7134 10.7142
1 6.3059 14.9197 10.7142
1 6.32854 15.7231 9.90527
1 5.50173 14.9218 9.92444
1 7.0996 15.7134 10.7142
1 7.8933 14.9197 10.7142
1 7.85764 15.7041 9.93339
1 7.12429 14.9352 9.91486
1 8.68701 15.7134 10.7142
1 9.48071 14.9197 10.7142
1 9.47148 15.6893 9.9321
1 8.65761 14.903 9.95015
1 10.2744 15.7134 10.7142
1 11.0681 14.9197 10.7142
1 11.0802 15.7101 9.93554
1 10.2684 14.9053 9.93088
1 11.8618 15.7134 10.7142
1 12.6555 14.9197 10.7142
1 12.6559 15.7038 9.91815
1 11.8639 14.9226 9.93154
1 13.4492 15.7134 10.7142
1 14.2429 14.9197 10.7142
1 14.2407 15.693 9.92632
1 13.4583 14.9023 9.92223
1 15.0366 15.7134 10.7142
1 15.8303 14.9197 10.7142
1 15.8321 15.7083 9.9334
1 15.0328 14.9192 9.93717
1 16.624 15.7134 10.7142
1 17.4177 14.9197 10.7142
1 17.4251 15.6914 9.89575
1 16.6278 14.9386 9.94711
1 18.2114 15.7134 10.7142
1 19.0051 14.9197 10.7142
1 18.9716 15.7109 9.93505
1 18.2193 14.9388 9.93488
1 19.7988 15.7134 10.7142
1 20.5925 14.9197 10.7142
1 20.5928 15.7447 9.89957
1 19.7863 14.9243 9.92522
1 21.3862 15.7134 10.7142
1 22.1799 14.9197 10.7142
1 22.1813 15.7209 9.95311
1 21.3809 14.9364 9.94709
1 22.9736 15.7134 10.7142
1 23.7673 14.9197 10.7142
1 23.7805 15.7149 9.91267
1 22.9702 14.9341 9.93793
1 24.561 15.7134 10.7142
1 25.3547 14.9197 10.7142
1 25.348 15.7332 9.90444
1 24.552 14.9192 9.92886
1 26.1484 15.7134 10.7142
1 26.9421 14.9197 10.7142
1 26.9402 15.7076 9.92991
1 26.1511 14.9014 9.94596
1 27.7358 15.7134 10.7142
1 28.5295 14.9197 10.7142
1 28.5209 15.7209 9.91584
1 27.7388 14.9246 9.94133
1 29.3232 15.7134 10.7142
1 0.116919 14.9197 10.7142
1 0.0469944 15.7079 9.90139
1 29.3019 14.9183 9.92505
1 0.75 14.126 10.7142
1 1.5437 13.3323 10.7142
1 1.59053 14.1461 9.90658
1 0.838343 13.3599 9.89363
1 2.3374 14.126 10.7142
1 3.1311 13.3323 10.7142
1 3.14282 14.142 9.88647
1 2.36082 13.3402 9.91545
1 3.9248 14.126 10.7142
1 4.7185 13.3323 10.7142
1 4.72164 14.13 9.92322
1 3.93965 13.3578 9.89817
1 5.5122 14.126 10.7142
1 6.3059 13.3323 10.7142
1 6.28921 14.1379 9.93502
1 5.53274 13.336 9.92717
1 7.0996 14.126 10.7142
1 7.8933 13.3323 10.7142
1 7.87789 14.1436 9.92991
1 7.11815 13.3412 9.96397
1 8.68701 14.126 10.7142
1 9.48071 13.3323 10.7142
1 9.47888 14.148 9.94708
1 8.68129 13.3575 9.9174
1 10.2744 14.126 10.7142
1 11.0681 13.3323 10.7142
1 11.0657 14.1257 9.91142
1 10.2695 13.3455 9.91222
1 11.8618 14.126 10.7142
1 12.6555 13.3323 10.7142
1 12.6483 14.1441 9.91964
1 11.8495 13.3343 9.91422
1 13.4492 14.126 10.7142
1 14.2429 13.3323 10.7142
1 14.2496 14.1038 9.92313
1 13.429 13.3084 9.92909
1 15.0366 14.126 10.7142
1 15.8303 13.3323 10.7142
1 15.8484 14.1292 9.93909
1 15.0307 13.3286 9.90755
1 16.624 14.126 10.7142
1 17.4177 13.3323 10.7142
1 17.429 14.1378 9.93081
1 16.6169 13.3284 9.90537
1 18.2114 14.126 10.7142
1 19.0051 13.3323 10.7142
1 19.0176 14.1224 9.93764
1 18.2109 13.325 9.92356
1 19.7988 14.126 10.7142
1 20.5925 13.3323 10.7142
1 20.5944 14.1204 9.91262
1 19.7886 13.3418 9.93369
1 21.3862 14.126 10.7142
1 22.1799 13.3323 10.7142
1 22.1742 14.1471 9.90688
1 21.368 13.3388 9.90703
1 22.9736 14.126 10.7142
1 23.7673 13.3323 10.7142
1 23.7678 14.1066 9.91861
1 22.9635 13.3572 9.93016
1 24.561 14.126 10.7142
1 25.3547 13.3323 10.7142
1 25.3376 14.1149 9.92159
1 24.5976 13.3221 9.95838
1 26.1484 14.126 10.7142
1 26.9421 13.3323 10.7142
1 26.9165 14.1227 9.90106
1 26.1151 13.3462 9.90727
1 27.7358 14.126 10.7142
1 28.5295 13.3323 10.7142
1 28.515 14.1358 9.90076
1 27.7175 13.3542 9.89602
1 29.3232 14.126 10.7142
1 0.116919 13.3323 10.7142
1 0.0467402 14.1174 9.88132
1 29.299 13.3528 9.90145
1 0.75 12.5386 10.7142
1 1.5437 11.7449 10.7142
1 1.55924 12.5517 9.90088
1 0.810141 11.7383 9.888
1 2.3374 12.5386 10.7142
1 3.1311 11.7449 10.7142
1 3.12112 12.5596 9.92476
1 2.35357 11.7322 9.93013
1 3.9248 12.5386 10.7142
1 4.7185 11.7449 10.7142
1 4.71395 12.5477 9.91215
1 3.91858 11.7382 9.93446
1 5.5122 12.5386 10.7142
1 6.3059 11.7449 10.7142
1 6.28548 12.5385 9.90322
1 5.51711 11.7503 9.90496
1 7.0996 12.5386 10.7142
1 7.8933 11.7449 10.7142
1 7.87875 12.54 9.91932
1 7.07804 11.7315 9.95828
1 8.68701 12.5386 10.7142
1 9.48071 11.7449 10.7142
1 9.49166 12.5498 9.92339
1 8.67966 11.7758 9.91834
1 10.2744 12.5386 10.7142
1 11.0681 11.7449 10.7142
1 11.0876 12.5448 9.92221
1 10.2564 11.7443 9.92391
1 11.8618 12.5386 10.7142
1 12.6555 11.7449 10.7142
1 12.6554 12.514 9.92886
1 11.8713 11.7354 9.9257
1 13.4492 12.5386 10.7142
1 14.2429 11.7449 10.7142
1 14.2617 12.5394 9.90552
1 13.4442 11.7571 9.92629
1 15.0366 12.5386 10.7142
1 15.8303 11.7449 10.7142
1 15.8301 12.544 9.94138
1 15.0675 11.7362 9.93016
1 16.624 12.5386 10.7142
1 17.4177 11.7449 10.7142
1 17.4202 12.5654 9.93888
1 16.6356 11.7475 9.9376
1 18.2114 12.5386 10.7142
1 19.0051 11.7449 10.7142
1 18.9967 12.5313 9.9016
1 18.2147 11.7382 9.91385
1 19.7988 12.5386 10.7142
1 20.5925 11.7449 10.7142
1 20.6109 12.5499 9.92157
1 19.8171 11.7349 9.94008
1 21.3862 12.5386 10.7142
1 22.1799 11.7449 10.7142
1 22.1687 12.5457 9.94925
1 21.4139 11.7428 9.93502
1 22.9736 12.5386 10.7142
1 23.7673 11.7449 10.7142
1 23.7735 12.5482 9.93088
1 22.9558 11.746 9.93983
1 24.561 12.5386 10.7142
1 25.3547 11.7449 10.7142
1 25.3372 12.557 9.92937
1 24.558 11.736 9.92292
1 26.1484 12.5386 10.7142
1 26.9421 11.7449 10.7142
1 26.9206 12.5383 9.9111
1 26.1393 11.7347 9.91681
1 27.7358 12.5386 10.7142
1 28.5295 11.7449 10.7142
1 28.5161 12.5207 9.92977
1 27.727 11.7516 9.93068
1 29.3232 12.5386 10.7142
1 0.116919 11.7449 10.7142
1 0.0682426 12.5481 9.89071
1 29.285 11.7367 9.91069
1 0.75 10.9512 10.7142
1 1.5437 10.1575 10.7142
1 1.56252 10.9516 9.89199
1 0.824643 10.1587 9.88999
1 2.3374 10.9512 10.7142
1 3.1311 10.1575 10.7142
1 3.12148 10.9379 9.90701
1 2.34695 10.1996 9.9039
1 3.9248 10.9512 10.7142
1 4.7185 10.1575 10.7142
1 4.71945 10.9634 9.92587
1 3.91276 10.1678 9.9061
1 5.5122 10.9512 10.7142
1 6.3059 10.1575 10.7142
1 6.31346 10.9252 9.92668
1 5.51165 10.1516 9.90393
1 7.0996 10.9512 10.7142
1 7.8933 10.1575 10.7142
1 7.91467 10.9475 9.92847
1 7.11566 10.1396 9.91437
1 8.68701 10.9512 10.7142
1 9.48071 10.1575 10.7142
1 9.49304 10.9308 9.93451
1 8.71513 10.1345 9.90307
1 10.2744 10.9512 10.7142
1 11.0681 10.1575 10.7142
1 11.0559 10.9628 9.94253
1 10.2694 10.1663 9.9004
1 11.8618 10.9512 10.7142
1 12.6555 10.1575 10.7142
1 12.6658 10.9333 9.9341
1 11.8544 10.1483 9.91663
1 13.4492 10.9512 10.7142
1 14.2429 10.1575 10.7142
1 14.2452 10.9376 9.89368
1 13.4543 10.1401 9.91649
1 15.0366 10.9512 10.7142
1 15.8303 10.1575 10.7142
1 15.838 10.95 9.91296
1 15.0311 10.1589 9.94513
1 16.624 10.9512 10.7142
1 17.4177 10.1575 10.7142
1 17.4561 10.9357 9.93635
1 16.5985 10.1498 9.92266
1 18.2114 10.9512 10.7142
1 19.0051 10.1575 10.7142
1 18.9911 10.9501 9.92584
1 18.231 10.1374 9.92519
1 19.7988 10.9512 10.7142
1 20.5925 10.1575 10.7142
1 20.5839 10.9451 9.92161
1 19.7954 10.158 9.91023
1 21.3862 10.9512 10.7142
1 22.1799 10.1575 10.7142
1 22.1698 10.9587 9.91298
1 21.3843 10.1446 9.90682
1 22.9736 10.9512 10.7142
1 23.7673 10.1575 10.7142
1 23.7427 10.9178 9.93469
1 22.9459 10.145 9.91432
1 24.561 10.9512 10.7142
1 25.3547 10.1575 10.7142
1 25.3432 10.9293 9.919
1 24.5528 10.1403 9.92515
1 26.1484 10.9512 10.7142
1 26.9421 10.1575 10.7142
1 26.9218 10.9436 9.91013
1 26.1582 10.1553 9.90316
1 27.7358 10.9512 10.7142
1 28.5295 10.1575 10.7142
1 28.5272 10.9635 9.94522
1 27.728 10.17 9.94949
1 29.3232 10.9512 10.7142
1 0.116919 10.1575 10.7142
1 0.065321 10.9408 9.89066
1 29.3028 10.1752 9.92471
1 0.75 9.36379 10.7142
1 1.5437 8.57009 10.7142
1 1.573 9.38816 9.90572
1 0.82766 8.57589 9.85542
1 2.3374 9.36379 10.7142
1 3.1311 8.57009 10.7142
1 3.12618 9.36554 9.93357
1 2.35104 8.58223 9.92645
1 3.9248 9.36379 10.7142
1 4.7185 8.57009 10.7142
1 4.72228 9.37986 9.92755
1 3.93238 8.58542 9.93295
1 5.5122 9.36379 10.7142
1 6.3059 8.57009 10.7142
1 6.33063 9.35928 9.92074
1 5.53702 8.5994 9.89527
1 7.0996 9.36379 10.7142
1 7.8933 8.57009 10.7142
1 7.87884 9.36879 9.93672
1 7.11132 8.57921 9.93937
1 8.68701 9.36379 10.7142
1 9.48071 8.57009 10.7142
1 9.47799 9.30804 9.90997
1 8.68492 8.58692 9.93379
1 10.2744 9.36379 10.7142
1 11.0681 8.57009 10.7142
1 11.0746 9.35801 9.93604
1 10.2804 8.5449 9.93246
1 11.8618 9.36379 10.7142
1 12.6555 8.57009 10.7142
1 12.6462 9.36341 9.9219
1 11.8645 8.55028 9.92104
1 13.4492 9.36379 10.7142
1 14.2429 8.57009 10.7142
1 14.2482 9.3705 9.93143
1 13.4575 8.60591 9.92583
1 15.0366 9.36379 10.7142
1 15.8303 8.57009 10.7142
1 15.8249 9.37507 9.92223
1 15.0435 8.56351 9.93194
1 16.624 9.36379 10.7142
1 17.4177 8.57009 10.7142
1 17.4059 9.37225 9.94844
1 16.6254 8.56544 9.91728
1 18.2114 9.36379 10.7142
1 19.0051 8.57009 10.7142
1 18.9884 9.3828 9.92055
1 18.1861 8.53798 9.90798
1 19.7988 9.36379 10.7142
1 20.5925 8.57009 10.7142
1 20.6018 9.34407 9.89768
1 19.8035 8.55545 9.93057
1 21.3862 9.36379 10.7142
1 22.1799 8.57009 10.7142
1 22.1753 9.3466 9.89712
1 21.3968 8.56545 9.91861
1 22.9736 9.36379 10.7142
1 23.7673 8.57009 10.7142
1 23.7716 9.35106 9.94097
1 22.9808 8.55562 9.91881
1 24.561 9.36379 10.7142
1 25.3547 8.57009 10.7142
1 25.3485 9.36569 9.93223
1 24.5691 8.54613 9.92779
1 26.1484 9.36379 10.7142
1 26.9421 8.57009 10.7142
1 26.9415 9.35527 9.92204
1 26.1411 8.55368 9.93756
1 27.7358 9.36379 10.7142
1 28.5295 8.57009 10.7142
1 28.5272 9.35306 9.93677
1 27.7542 8.55929 9.92721
1 29.3232 9.36379 10.7142
1 0.116919 8.57009 10.7142
1 0.0545939 9.37739 9.88127
1 29.2885 8.56958 9.91306
1 0.75 7.77639 10.7142
1 1.5437 6.98268 10.7142
1 1.58996 7.78324 9.91783
1 0.792614 6.99568 9.88417
1 2.3374 7.77639 10.7142
1 3.1311 6.98268 10.7142
1 3.12703 7.78471 9.92873
1 2.35336 6.97984 9.94092
1 3.9248 7.77639 10.7142
1 4.7185 6.98268 10.7142
1 4.71642 7.79291 9.91836
1 3.92637 7.0183 9.9293
1 5.5122 7.77639 10.7142
1 6.3059 6.98268 10.7142
1 6.32288 7.78525 9.92665
1 5.53887 6.99847 9.91277
1 7.0996 7.77639 10.7142
1 7.8933 6.98268 10.7142
1 7.89603 7.78287 9.91724
1 7.09264 6.99234 9.91946
1 8.68701 7.77639 10.7142
1 9.48071 6.98268 10.7142
1 9.47112 7.7764 9.92074
1 8.69493 6.98763 9.90375
1 10.2744 7.77639 10.7142
1 11.0681 6.98268 10.7142
1 11.0611 7.73048 9.915
1 10.2627 6.99245 9.90657
1 11.8618 7.77639 10.7142
1 12.6555 6.98268 10.7142
1 12.67 7.78066 9.93087
1 11.8921 6.98231 9.95577
1 13.4492 7.77639 10.7142
1 14.2429 6.98268 10.7142
1 14.2598 7.79095 9.91134
1 13.4633 6.99018 9.93053
1 15.0366 7.77639 10.7142
1 15.8303 6.98268 10.7142
1 15.8415 7.78584 9.91834
1 15.036 6.9855 9.92442
1 16.624 7.77639 10.7142
1 17.4177 6.98268 10.7142
1 17.4038 7.76657 9.92579
1 16.6058 6.95382 9.92908
1 18.2114 7.77639 10.7142
1 19.0051 6.98268 10.7142
1 18.9895 7.78735 9.9101
1 18.2045 6.98459 9.9154
1 19.7988 7.77639 10.7142
1 20.5925 6.98268 10.7142
1 20.6019 7.79673 9.92141
1 19.7866 6.99114 9.92086
1 21.3862 7.77639 10.7142
1 22.1799 6.98268 10.7142
1 22.2036 7.76915 9.91566
1 21.3792 6.98102 9.94629
1 22.9736 7.77639 10.7142
1 23.7673 6.98268 10.7142
1 23.7908 7.78113 9.91707
1 22.9978 6.97489 9.9035
1 24.561 7.77639 10.7142
1 25.3547 6.98268 10.7142
1 25.3514 7.77293 9.93453
1 24.5643 6.96881 9.92081
1 26.1484 7.77639 10.7142
1 26.9421 6.98268 10.7142
1 26.9276 7.78125 9.8972
1 26.1552 6.97182 9.92096
1 27.7358 7.77639 10.7142
1 28.5295 6.98268 10.7142
1 28.5067 7.766 9.92285
1 27.7329 7.00503 9.91603
1 29.3232 7.77639 10.7142
1 0.116919 6.98268 10.7142
1 0.0423867 7.80605 9.88632
1 29.3234 6.97969 9.91387
1 0.75 6.18898 10.7142
1 1.5437 5.39528 10.7142
1 1.56642 6.20058 9.89555
1 0.833668 5.40229 9.88124
1 2.3374 6.18898 10.7142
1 3.1311 5.39528 10.7142
1 3.17313 6.19128 9.93122
1 2.35786 5.40574 9.92912
1 3.9248 6.18898 10.7142
1 4.7185 5.39528 10.7142
1 4.72554 6.17237 9.92014
1 3.94033 5.37774 9.92719
1 5.5122 6.18898 10.7142
1 6.3059 5.39528 10.7142
1 6.32699 6.20499 9.90551
1 5.53614 5.38073 9.9092
1 7.0996 6.18898 10.7142
1 7.8933 5.39528 10.7142
1 7.88325 6.20201 9.92387
1 7.10233 5.40567 9.90582
1 8.68701 6.18898 10.7142
1 9.48071 5.39528 10.7142
1 9.48293 6.19803 9.92192
1 8.67761 5.39875 9.89123