LAMMPS (7 Aug 2019)
#--- Brush Variables---#
variable      f      equal  2
variable      M      equal  $(v_f * 30)                 # The number of polymer chains on each brush
variable      M      equal  60                 
variable      N      string 30                 # The number of beads per chain
variable      xhi    equal  $(sqrt(v_f) * 20)                 # The width of the polymer Brush
variable      xhi    equal  28.284271247461902021                 
variable      yhi    equal  $(sqrt(v_f) * 20)                 # The length of the polymer Brush
variable      yhi    equal  28.284271247461902021                 
variable      wthick equal  3                  # The thickness of the walls wthick=1,2,3,4 gives 2,3,4,6 layers respectively

#--- Simulation Variables ---#
variable       Temp      index 1        #0.8 1 1.68                 #[Grest96]
variable       Tstep     equal 0.005                       # Timestep in Tau (default = 0.005)
variable       Nequil    equal 300000                       # Number of timesteps to equilibrate
variable       Ncomp     equal 700000                     # Number of timesteps to compress - until no more occilation of walls
variable       Nshear    equal 4000000      #2000000                      # Number of timesteps to shear - use approx 4ns for 10m/s
variable       Nthermo   equal 1000                        # Number of timesteps between thermo data prints
variable       Ndump_e   equal 10000
variable       Ndump_c   equal 10000                      # Number of timesteps per dump file (compression)
variable       Ndump_s   equal 10000                       # Number of timesteps per dump file (shear)
variable       Wall_v    index 0.5   #0.001 0.01 0.1 0.2 0.4 0.6 0.8 1 1.2 1.4 1.6 1.8 2   # 0.005 0.05 0.1 0.5 1.5 0.001 0.003 0.2 0.0002 2                      # Wall velocity (A/fs) - equal to 10 m/s
variable       Pcomp     index 1 0.5 2 0.05 4 8

include        MDPBB.in
# This is an input script that creates a mono disperse polymer brush bilayer
# A coarse grained bead-spring model is used for the polymers which are end
# grafted to the surfaces of 2 opposing FCC walls at random sites.

#--- Initialization ---#

dimension     3
boundary      p p f
units         lj
atom_style    bond


#--- Moved to main.in ---#
#variable      M      equal  50                # The number of polymer chains on each brush
#variable      N      string 80                # The number of beads per chain
#variable      xhi    equal  15                # The width of the polymer Brush
#variable      yhi    equal  20                # The length of the polymer Brush
#variable      wthick equal  3                 # The thickness of the walls wthick=1,2,3,4 gives 2,3,4,6 layers respectively

variable      zhi    equal  $(1.1 * 2 * v_N + (2 * v_wthick))  # The initial height of the simulation box the value is such that no overlaps occur
variable      zhi    equal  72  
variable      z0     equal  $((v_zhi)/4 - (v_N)/30)          # This is the location at which to place the CoM of the molecule
variable      z0     equal  17          

print "The number of grafted chains = $(v_M)"
The number of grafted chains = 60
print "The number of beads per chain = $(v_N)"
The number of beads per chain = 30

variable      check  equal count(all)         # The number of atoms in the system
variable      ntwall equal count(twall)       # The number of atoms in the top wall
variable      nbwall equal count(bwall)       # The number of atoms in the bottom wall
variable      s equal 234897  #45335              # Seed for the RNG

print "zhi = ${zhi}"
zhi = 72

#--- Create the simulation box ---#

region        sbox block 0 ${xhi} 0 ${yhi} 0 ${zhi}
region        sbox block 0 28.2842712474619 0 ${yhi} 0 ${zhi}
region        sbox block 0 28.2842712474619 0 28.2842712474619 0 ${zhi}
region        sbox block 0 28.2842712474619 0 28.2842712474619 0 72
create_box    4 sbox bond/types 3 extra/bond/per/atom 12 extra/special/per/atom 2
Created orthogonal box = (0 0 0) to (28.2843 28.2843 72)
  2 by 2 by 8 MPI processor grid

mass          1 2.0                   # Wall atoms that are not grafted
mass          2 1.0                   # Grafted bead
mass          3 1.0                   # The rest of the beads on the chain
mass          4 2.0                   # Wall atoms that the chains are grafted to

bond_style    hybrid fene harmonic    # Finitely extensible linearly elastic bond between neighbouring beads
#bond_coeff    1 fene 30.0 1.5 0.0 0.0      # Values obtained from literature [Grest, Galushcko]
bond_coeff    1 fene 30.0 30.0 0.0 0.0
bond_coeff    2 fene 30.0 30.0 0.0 0.0       # This is the grafting bond between the polymer and the wall atom
special_bonds fene                    #
  0 = max # of 1-2 neighbors
  5 = max # of special neighbors
  special bonds CPU = 0.0026021 secs
pair_style	  lj/cut 1.122462         # LJ potential with rc=2^1/6
#pair_coeff	  * * 1.0 1.0             # LJ potential acts between all atoms
pair_coeff    1 1 0.0 0.0
pair_coeff    1 2 1.0 1.0
pair_coeff    1 3 1.0 1.0
pair_coeff    2 2 1.0 1.0
pair_coeff    2 3 1.0 1.0
pair_coeff    2 4 1.0 1.0
pair_coeff    3 3 1.0 1.0
pair_coeff    3 4 1.0 1.0
pair_coeff    4 4 0.0 0.0
neighbor      10 bin                  #
neigh_modify  one 4000

#--- Create and read the molecule file ---#
python        BSMolf input 1 $N format i file BSMolf.py
python        BSMolf input 1 30 format i file BSMolf.py
python        BSMolf invoke    # Call the python function with number of beads to write the mol file
molecule      bs     bsmol.txt     # Read the Mol file to define the polymer chain
Read molecule bs:
  30 atoms with max type 2
  29 bonds with max type 1
  0 angles with max type 0
  0 dihedrals with max type 0
  0 impropers with max type 0

#--- Define the FCC wall region ---#
region        wall  block 0 ${xhi} 0 ${yhi} 0 ${wthick}
region        wall  block 0 28.2842712474619 0 ${yhi} 0 ${wthick}
region        wall  block 0 28.2842712474619 0 28.2842712474619 0 ${wthick}
region        wall  block 0 28.2842712474619 0 28.2842712474619 0 3
lattice       fcc 1
Lattice spacing in x,y,z = 1.5874 1.5874 1.5874

#--- Create the Top Brush  (At the bottom then rotate 180 degrees to top) ---#

create_atoms  1 region wall
Created 2592 atoms
  create_atoms CPU = 0.00223207 secs
group         twall  region wall
2592 atoms in group twall
#group         tsurf  region wsurf

# A loop to insert the Chains into the sim box
variable      i loop $M                                   # Index to insert N total number of chains
variable      i loop 60                                   
label         loop                                        # Start of loop
variable      randni equal round(random(1,${ntwall},$s))  # Pick a random "top" wall atom
variable      randni equal round(random(1,2592,$s))  
variable      randni equal round(random(1,2592,234897))  
variable      randatomi equal ${randni}                   # This is to obtain an integer number for atom-id
variable      randatomi equal 1628                   
variable      randzi equal z[${randatomi}]                # Determine the z coordinate of the chosen atom
variable      randzi equal z[1628]                
# if the chosen atom is not a surface atom then restart the loop
if            "${randzi} < $(v_wthick - 0.7)" then "jump MDPBB.in loop"
set           atom ${randatomi} type 4                    # Set this grafted wall atom as a new type
set           atom 1628 type 4                    
  1 settings made for type
group         twg id ${randatomi}                         # Add this atom to a top-wall-grafted group
group         twg id 1628                         
1 atoms in group twg
variable      twgcount equal count(twg)
print         "twg contains ${twgcount}"
twg contains 1
print         "i = $(v_i)"                                # The index i should always be equal to the number of atom in twg
i = 1
variable      x0 equal x[${randatomi}]                    # Determine its x-coord
variable      x0 equal x[1628]                    
variable      y0 equal y[${randatomi}]                    # Determine its y-coord
variable      y0 equal y[1628]                    
variable      check0 equal ${check}                       # Count the number of atoms in the simulation
variable      check0 equal 2592                       
variable      b equal ${check}+1                          # The grafted bead id will be one higher after being inserted
variable      b equal 2592+1                          
if            "${twgcount} != $(v_i)" then "jump MDPBB.in loop"
# Otherwise insert the chain directly above the chosen wall atom pointing perpendicular to the wall
create_atoms  1 single ${x0} ${y0} ${z0} mol bs 24987 units box remap yes rotate 0 0 0 1
create_atoms  1 single 15.874010519682 ${y0} ${z0} mol bs 24987 units box remap yes rotate 0 0 0 1
create_atoms  1 single 15.874010519682 0.7937005259841 ${z0} mol bs 24987 units box remap yes rotate 0 0 0 1
create_atoms  1 single 15.874010519682 0.7937005259841 17 mol bs 24987 units box remap yes rotate 0 0 0 1
Created 30 atoms
  create_atoms CPU = 0.00279689 secs
variable      check1 equal ${check}               # Count the new total number of atoms
variable      check1 equal 2622               
# Check that the molecule has indeed been inserted (This check is no longer an issue).
if            "${check1} != ${check0}" then "create_bonds  single/bond 2 ${randatomi} $b" "next i"
create_bonds  single/bond 2 ${randatomi} $b
create_bonds  single/bond 2 1628 $b
create_bonds  single/bond 2 1628 2593
  2 = max # of 1-2 neighbors
  5 = max # of special neighbors
  special bonds CPU = 0.00108314 secs
next i
jump MDPBB.in loop    # End of the loop
variable      randni equal round(random(1,${ntwall},$s))  # Pick a random "top" wall atom
variable      randni equal round(random(1,2592,$s))  
variable      randni equal round(random(1,2592,234897))  
variable      randatomi equal ${randni}                   # This is to obtain an integer number for atom-id
variable      randatomi equal 408                   
variable      randzi equal z[${randatomi}]                # Determine the z coordinate of the chosen atom
variable      randzi equal z[408]                
# if the chosen atom is not a surface atom then restart the loop
if            "${randzi} < $(v_wthick - 0.7)" then "jump MDPBB.in loop"
set           atom ${randatomi} type 4                    # Set this grafted wall atom as a new type
set           atom 408 type 4                    
  1 settings made for type
group         twg id ${randatomi}                         # Add this atom to a top-wall-grafted group
group         twg id 408                         
2 atoms in group twg
variable      twgcount equal count(twg)
print         "twg contains ${twgcount}"
twg contains 2
print         "i = $(v_i)"                                # The index i should always be equal to the number of atom in twg
i = 2
variable      x0 equal x[${randatomi}]                    # Determine its x-coord
variable      x0 equal x[408]                    
variable      y0 equal y[${randatomi}]                    # Determine its y-coord
variable      y0 equal y[408]                    
variable      check0 equal ${check}                       # Count the number of atoms in the simulation
variable      check0 equal 2622                       
variable      b equal ${check}+1                          # The grafted bead id will be one higher after being inserted
variable      b equal 2622+1                          
if            "${twgcount} != $(v_i)" then "jump MDPBB.in loop"
# Otherwise insert the chain directly above the chosen wall atom pointing perpendicular to the wall
create_atoms  1 single ${x0} ${y0} ${z0} mol bs 24987 units box remap yes rotate 0 0 0 1
create_atoms  1 single 3.1748021039364 ${y0} ${z0} mol bs 24987 units box remap yes rotate 0 0 0 1
create_atoms  1 single 3.1748021039364 3.9685026299205 ${z0} mol bs 24987 units box remap yes rotate 0 0 0 1
create_atoms  1 single 3.1748021039364 3.9685026299205 17 mol bs 24987 units box remap yes rotate 0 0 0 1
Created 30 atoms
  create_atoms CPU = 0.00245786 secs
variable      check1 equal ${check}               # Count the new total number of atoms
variable      check1 equal 2652               
# Check that the molecule has indeed been inserted (This check is no longer an issue).
if            "${check1} != ${check0}" then "create_bonds  single/bond 2 ${randatomi} $b" "next i"
create_bonds  single/bond 2 ${randatomi} $b
create_bonds  single/bond 2 408 $b
create_bonds  single/bond 2 408 2623
  2 = max # of 1-2 neighbors
  5 = max # of special neighbors
  special bonds CPU = 0.000749826 secs
next i
jump MDPBB.in loop    # End of the loop
variable      randni equal round(random(1,${ntwall},$s))  # Pick a random "top" wall atom
variable      randni equal round(random(1,2592,$s))  
variable      randni equal round(random(1,2592,234897))  
variable      randatomi equal ${randni}                   # This is to obtain an integer number for atom-id
variable      randatomi equal 1958                   
variable      randzi equal z[${randatomi}]                # Determine the z coordinate of the chosen atom
variable      randzi equal z[1958]                
# if the chosen atom is not a surface atom then restart the loop
if            "${randzi} < $(v_wthick - 0.7)" then "jump MDPBB.in loop"
jump MDPBB.in loop
variable      randni equal round(random(1,${ntwall},$s))  # Pick a random "top" wall atom
variable      randni equal round(random(1,2592,$s))  
variable      randni equal round(random(1,2592,234897))  
variable      randatomi equal ${randni}                   # This is to obtain an integer number for atom-id
variable      randatomi equal 1976                   
variable      randzi equal z[${randatomi}]                # Determine the z coordinate of the chosen atom
variable      randzi equal z[1976]                
# if the chosen atom is not a surface atom then restart the loop
if            "${randzi} < $(v_wthick - 0.7)" then "jump MDPBB.in loop"
jump MDPBB.in loop
variable      randni equal round(random(1,${ntwall},$s))  # Pick a random "top" wall atom
variable      randni equal round(random(1,2592,$s))  
variable      randni equal round(random(1,2592,234897))  
variable      randatomi equal ${randni}                   # This is to obtain an integer number for atom-id
variable      randatomi equal 1883                   
variable      randzi equal z[${randatomi}]                # Determine the z coordinate of the chosen atom
variable      randzi equal z[1883]                
# if the chosen atom is not a surface atom then restart the loop
if            "${randzi} < $(v_wthick - 0.7)" then "jump MDPBB.in loop"
set           atom ${randatomi} type 4                    # Set this grafted wall atom as a new type
set           atom 1883 type 4                    
  1 settings made for type
group         twg id ${randatomi}                         # Add this atom to a top-wall-grafted group
group         twg id 1883                         
3 atoms in group twg
variable      twgcount equal count(twg)
print         "twg contains ${twgcount}"
twg contains 3
print         "i = $(v_i)"                                # The index i should always be equal to the number of atom in twg
i = 3
variable      x0 equal x[${randatomi}]                    # Determine its x-coord
variable      x0 equal x[1883]                    
variable      y0 equal y[${randatomi}]                    # Determine its y-coord
variable      y0 equal y[1883]                    
variable      check0 equal ${check}                       # Count the number of atoms in the simulation
variable      check0 equal 2652                       
variable      b equal ${check}+1                          # The grafted bead id will be one higher after being inserted
variable      b equal 2652+1                          
if            "${twgcount} != $(v_i)" then "jump MDPBB.in loop"
# Otherwise insert the chain directly above the chosen wall atom pointing perpendicular to the wall
create_atoms  1 single ${x0} ${y0} ${z0} mol bs 24987 units box remap yes rotate 0 0 0 1
create_atoms  1 single 18.2551120976343 ${y0} ${z0} mol bs 24987 units box remap yes rotate 0 0 0 1
create_atoms  1 single 18.2551120976343 11.1118073637774 ${z0} mol bs 24987 units box remap yes rotate 0 0 0 1
create_atoms  1 single 18.2551120976343 11.1118073637774 17 mol bs 24987 units box remap yes rotate 0 0 0 1
Created 30 atoms
  create_atoms CPU = 0.000349045 secs
variable      check1 equal ${check}               # Count the new total number of atoms
variable      check1 equal 2682               
# Check that the molecule has indeed been inserted (This check is no longer an issue).
if            "${check1} != ${check0}" then "create_bonds  single/bond 2 ${randatomi} $b" "next i"
create_bonds  single/bond 2 ${randatomi} $b
create_bonds  single/bond 2 1883 $b
create_bonds  single/bond 2 1883 2653
  2 = max # of 1-2 neighbors
  5 = max # of special neighbors
  special bonds CPU = 0.000746965 secs
next i
jump MDPBB.in loop    # End of the loop
variable      randni equal round(random(1,${ntwall},$s))  # Pick a random "top" wall atom
variable      randni equal round(random(1,2592,$s))  
variable      randni equal round(random(1,2592,234897))  
variable      randatomi equal ${randni}                   # This is to obtain an integer number for atom-id
variable      randatomi equal 2554                   
variable      randzi equal z[${randatomi}]                # Determine the z coordinate of the chosen atom
variable      randzi equal z[2554]                
# if the chosen atom is not a surface atom then restart the loop
if            "${randzi} < $(v_wthick - 0.7)" then "jump MDPBB.in loop"
jump MDPBB.in loop
variable      randni equal round(random(1,${ntwall},$s))  # Pick a random "top" wall atom
variable      randni equal round(random(1,2592,$s))  
variable      randni equal round(random(1,2592,234897))  
variable      randatomi equal ${randni}                   # This is to obtain an integer number for atom-id
variable      randatomi equal 1232                   
variable      randzi equal z[${randatomi}]                # Determine the z coordinate of the chosen atom
variable      randzi equal z[1232]                
# if the chosen atom is not a surface atom then restart the loop
if            "${randzi} < $(v_wthick - 0.7)" then "jump MDPBB.in loop"
set           atom ${randatomi} type 4                    # Set this grafted wall atom as a new type
set           atom 1232 type 4                    
  1 settings made for type
group         twg id ${randatomi}                         # Add this atom to a top-wall-grafted group
group         twg id 1232                         
4 atoms in group twg
variable      twgcount equal count(twg)
print         "twg contains ${twgcount}"
twg contains 4
print         "i = $(v_i)"                                # The index i should always be equal to the number of atom in twg
i = 4
variable      x0 equal x[${randatomi}]                    # Determine its x-coord
variable      x0 equal x[1232]                    
variable      y0 equal y[${randatomi}]                    # Determine its y-coord
variable      y0 equal y[1232]                    
variable      check0 equal ${check}                       # Count the number of atoms in the simulation
variable      check0 equal 2682                       
variable      b equal ${check}+1                          # The grafted bead id will be one higher after being inserted
variable      b equal 2682+1                          
if            "${twgcount} != $(v_i)" then "jump MDPBB.in loop"
# Otherwise insert the chain directly above the chosen wall atom pointing perpendicular to the wall
create_atoms  1 single ${x0} ${y0} ${z0} mol bs 24987 units box remap yes rotate 0 0 0 1
create_atoms  1 single 1.5874010519682 ${y0} ${z0} mol bs 24987 units box remap yes rotate 0 0 0 1
create_atoms  1 single 1.5874010519682 26.1921173574753 ${z0} mol bs 24987 units box remap yes rotate 0 0 0 1
create_atoms  1 single 1.5874010519682 26.1921173574753 17 mol bs 24987 units box remap yes rotate 0 0 0 1
Created 30 atoms
  create_atoms CPU = 0.00247192 secs
variable      check1 equal ${check}               # Count the new total number of atoms
variable      check1 equal 2712               
# Check that the molecule has indeed been inserted (This check is no longer an issue).
if            "${check1} != ${check0}" then "create_bonds  single/bond 2 ${randatomi} $b" "next i"
create_bonds  single/bond 2 ${randatomi} $b
create_bonds  single/bond 2 1232 $b
create_bonds  single/bond 2 1232 2683
  2 = max # of 1-2 neighbors
  5 = max # of special neighbors
  special bonds CPU = 0.000745058 secs
next i
jump MDPBB.in loop    # End of the loop
variable      randni equal round(random(1,${ntwall},$s))  # Pick a random "top" wall atom
variable      randni equal round(random(1,2592,$s))  
variable      randni equal round(random(1,2592,234897))  
variable      randatomi equal ${randni}                   # This is to obtain an integer number for atom-id
variable      randatomi equal 869                   
variable      randzi equal z[${randatomi}]                # Determine the z coordinate of the chosen atom
variable      randzi equal z[869]                
# if the chosen atom is not a surface atom then restart the loop
if            "${randzi} < $(v_wthick - 0.7)" then "jump MDPBB.in loop"
jump MDPBB.in loop
variable      randni equal round(random(1,${ntwall},$s))  # Pick a random "top" wall atom
variable      randni equal round(random(1,2592,$s))  
variable      randni equal round(random(1,2592,234897))  
variable      randatomi equal ${randni}                   # This is to obtain an integer number for atom-id
variable      randatomi equal 1122                   
variable      randzi equal z[${randatomi}]                # Determine the z coordinate of the chosen atom
variable      randzi equal z[1122]                
# if the chosen atom is not a surface atom then restart the loop
if            "${randzi} < $(v_wthick - 0.7)" then "jump MDPBB.in loop"
jump MDPBB.in loop
variable      randni equal round(random(1,${ntwall},$s))  # Pick a random "top" wall atom
variable      randni equal round(random(1,2592,$s))  
variable      randni equal round(random(1,2592,234897))  
variable      randatomi equal ${randni}                   # This is to obtain an integer number for atom-id
variable      randatomi equal 1876                   
variable      randzi equal z[${randatomi}]                # Determine the z coordinate of the chosen atom
variable      randzi equal z[1876]                
# if the chosen atom is not a surface atom then restart the loop
if            "${randzi} < $(v_wthick - 0.7)" then "jump MDPBB.in loop"
set           atom ${randatomi} type 4                    # Set this grafted wall atom as a new type
set           atom 1876 type 4                    
  1 settings made for type
group         twg id ${randatomi}                         # Add this atom to a top-wall-grafted group
group         twg id 1876                         
5 atoms in group twg
variable      twgcount equal count(twg)
print         "twg contains ${twgcount}"
twg contains 5
print         "i = $(v_i)"                                # The index i should always be equal to the number of atom in twg
i = 5
variable      x0 equal x[${randatomi}]                    # Determine its x-coord
variable      x0 equal x[1876]                    
variable      y0 equal y[${randatomi}]                    # Determine its y-coord
variable      y0 equal y[1876]                    
variable      check0 equal ${check}                       # Count the number of atoms in the simulation
variable      check0 equal 2712                       
variable      b equal ${check}+1                          # The grafted bead id will be one higher after being inserted
variable      b equal 2712+1                          
if            "${twgcount} != $(v_i)" then "jump MDPBB.in loop"
# Otherwise insert the chain directly above the chosen wall atom pointing perpendicular to the wall
create_atoms  1 single ${x0} ${y0} ${z0} mol bs 24987 units box remap yes rotate 0 0 0 1
create_atoms  1 single 14.2866094677138 ${y0} ${z0} mol bs 24987 units box remap yes rotate 0 0 0 1
create_atoms  1 single 14.2866094677138 11.9055078897615 ${z0} mol bs 24987 units box remap yes rotate 0 0 0 1
create_atoms  1 single 14.2866094677138 11.9055078897615 17 mol bs 24987 units box remap yes rotate 0 0 0 1
Created 30 atoms
  create_atoms CPU = 0.000332117 secs
variable      check1 equal ${check}               # Count the new total number of atoms
variable      check1 equal 2742               
# Check that the molecule has indeed been inserted (This check is no longer an issue).
if            "${check1} != ${check0}" then "create_bonds  single/bond 2 ${randatomi} $b" "next i"
create_bonds  single/bond 2 ${randatomi} $b
create_bonds  single/bond 2 1876 $b
create_bonds  single/bond 2 1876 2713
  2 = max # of 1-2 neighbors
  5 = max # of special neighbors
  special bonds CPU = 0.000746012 secs
next i
jump MDPBB.in loop    # End of the loop
variable      randni equal round(random(1,${ntwall},$s))  # Pick a random "top" wall atom
variable      randni equal round(random(1,2592,$s))  
variable      randni equal round(random(1,2592,234897))  
variable      randatomi equal ${randni}                   # This is to obtain an integer number for atom-id
variable      randatomi equal 2321                   
variable      randzi equal z[${randatomi}]                # Determine the z coordinate of the chosen atom
variable      randzi equal z[2321]                
# if the chosen atom is not a surface atom then restart the loop
if            "${randzi} < $(v_wthick - 0.7)" then "jump MDPBB.in loop"
jump MDPBB.in loop
variable      randni equal round(random(1,${ntwall},$s))  # Pick a random "top" wall atom
variable      randni equal round(random(1,2592,$s))  
variable      randni equal round(random(1,2592,234897))  
variable      randatomi equal ${randni}                   # This is to obtain an integer number for atom-id
variable      randatomi equal 19                   
variable      randzi equal z[${randatomi}]                # Determine the z coordinate of the chosen atom
variable      randzi equal z[19]                
# if the chosen atom is not a surface atom then restart the loop
if            "${randzi} < $(v_wthick - 0.7)" then "jump MDPBB.in loop"
jump MDPBB.in loop
variable      randni equal round(random(1,${ntwall},$s))  # Pick a random "top" wall atom
variable      randni equal round(random(1,2592,$s))  
variable      randni equal round(random(1,2592,234897))  
variable      randatomi equal ${randni}                   # This is to obtain an integer number for atom-id
variable      randatomi equal 494                   
variable      randzi equal z[${randatomi}]                # Determine the z coordinate of the chosen atom
variable      randzi equal z[494]                
# if the chosen atom is not a surface atom then restart the loop
if            "${randzi} < $(v_wthick - 0.7)" then "jump MDPBB.in loop"
jump MDPBB.in loop
variable      randni equal round(random(1,${ntwall},$s))  # Pick a random "top" wall atom
variable      randni equal round(random(1,2592,$s))  
variable      randni equal round(random(1,2592,234897))  
variable      randatomi equal ${randni}                   # This is to obtain an integer number for atom-id
variable      randatomi equal 847                   
variable      randzi equal z[${randatomi}]                # Determine the z coordinate of the chosen atom
variable      randzi equal z[847]                
# if the chosen atom is not a surface atom then restart the loop
if            "${randzi} < $(v_wthick - 0.7)" then "jump MDPBB.in loop"
jump MDPBB.in loop
variable      randni equal round(random(1,${ntwall},$s))  # Pick a random "top" wall atom
variable      randni equal round(random(1,2592,$s))  
variable      randni equal round(random(1,2592,234897))  
variable      randatomi equal ${randni}                   # This is to obtain an integer number for atom-id
variable      randatomi equal 2100                   
variable      randzi equal z[${randatomi}]                # Determine the z coordinate of the chosen atom
variable      randzi equal z[2100]                
# if the chosen atom is not a surface atom then restart the loop
if            "${randzi} < $(v_wthick - 0.7)" then "jump MDPBB.in loop"
jump MDPBB.in loop
variable      randni equal round(random(1,${ntwall},$s))  # Pick a random "top" wall atom
variable      randni equal round(random(1,2592,$s))  
variable      randni equal round(random(1,2592,234897))  
variable      randatomi equal ${randni}                   # This is to obtain an integer number for atom-id
variable      randatomi equal 1839                   
variable      randzi equal z[${randatomi}]                # Determine the z coordinate of the chosen atom
variable      randzi equal z[1839]                
# if the chosen atom is not a surface atom then restart the loop
if            "${randzi} < $(v_wthick - 0.7)" then "jump MDPBB.in loop"
set           atom ${randatomi} type 4                    # Set this grafted wall atom as a new type
set           atom 1839 type 4                    
  1 settings made for type
group         twg id ${randatomi}                         # Add this atom to a top-wall-grafted group
group         twg id 1839                         
6 atoms in group twg
variable      twgcount equal count(twg)
print         "twg contains ${twgcount}"
twg contains 6
print         "i = $(v_i)"                                # The index i should always be equal to the number of atom in twg
i = 6
variable      x0 equal x[${randatomi}]                    # Determine its x-coord
variable      x0 equal x[1839]                    
variable      y0 equal y[${randatomi}]                    # Determine its y-coord
variable      y0 equal y[1839]                    
variable      check0 equal ${check}                       # Count the number of atoms in the simulation
variable      check0 equal 2742                       
variable      b equal ${check}+1                          # The grafted bead id will be one higher after being inserted
variable      b equal 2742+1                          
if            "${twgcount} != $(v_i)" then "jump MDPBB.in loop"
# Otherwise insert the chain directly above the chosen wall atom pointing perpendicular to the wall
create_atoms  1 single ${x0} ${y0} ${z0} mol bs 24987 units box remap yes rotate 0 0 0 1
create_atoms  1 single 15.0803099936979 ${y0} ${z0} mol bs 24987 units box remap yes rotate 0 0 0 1
create_atoms  1 single 15.0803099936979 9.5244063118092 ${z0} mol bs 24987 units box remap yes rotate 0 0 0 1
create_atoms  1 single 15.0803099936979 9.5244063118092 17 mol bs 24987 units box remap yes rotate 0 0 0 1
Created 30 atoms
  create_atoms CPU = 0.000313997 secs
variable      check1 equal ${check}               # Count the new total number of atoms
variable      check1 equal 2772               
# Check that the molecule has indeed been inserted (This check is no longer an issue).
if            "${check1} != ${check0}" then "create_bonds  single/bond 2 ${randatomi} $b" "next i"
create_bonds  single/bond 2 ${randatomi} $b
create_bonds  single/bond 2 1839 $b
create_bonds  single/bond 2 1839 2743
  2 = max # of 1-2 neighbors
  5 = max # of special neighbors
  special bonds CPU = 0.000760078 secs
next i
jump MDPBB.in loop    # End of the loop
variable      randni equal round(random(1,${ntwall},$s))  # Pick a random "top" wall atom
variable      randni equal round(random(1,2592,$s))  
variable      randni equal round(random(1,2592,234897))  
variable      randatomi equal ${randni}                   # This is to obtain an integer number for atom-id
variable      randatomi equal 1785                   
variable      randzi equal z[${randatomi}]                # Determine the z coordinate of the chosen atom
variable      randzi equal z[1785]                
# if the chosen atom is not a surface atom then restart the loop
if            "${randzi} < $(v_wthick - 0.7)" then "jump MDPBB.in loop"
jump MDPBB.in loop
variable      randni equal round(random(1,${ntwall},$s))  # Pick a random "top" wall atom
variable      randni equal round(random(1,2592,$s))  
variable      randni equal round(random(1,2592,234897))  
variable      randatomi equal ${randni}                   # This is to obtain an integer number for atom-id
variable      randatomi equal 1448                   
variable      randzi equal z[${randatomi}]                # Determine the z coordinate of the chosen atom
variable      randzi equal z[1448]                
# if the chosen atom is not a surface atom then restart the loop
if            "${randzi} < $(v_wthick - 0.7)" then "jump MDPBB.in loop"
jump MDPBB.in loop
variable      randni equal round(random(1,${ntwall},$s))  # Pick a random "top" wall atom
variable      randni equal round(random(1,2592,$s))  
variable      randni equal round(random(1,2592,234897))  
variable      randatomi equal ${randni}                   # This is to obtain an integer number for atom-id
variable      randatomi equal 2019                   
variable      randzi equal z[${randatomi}]                # Determine the z coordinate of the chosen atom
variable      randzi equal z[2019]                
# if the chosen atom is not a surface atom then restart the loop
if            "${randzi} < $(v_wthick - 0.7)" then "jump MDPBB.in loop"
jump MDPBB.in loop
variable      randni equal round(random(1,${ntwall},$s))  # Pick a random "top" wall atom
variable      randni equal round(random(1,2592,$s))  
variable      randni equal round(random(1,2592,234897))  
variable      randatomi equal ${randni}                   # This is to obtain an integer number for atom-id
variable      randatomi equal 1595                   
variable      randzi equal z[${randatomi}]                # Determine the z coordinate of the chosen atom
variable      randzi equal z[1595]                
# if the chosen atom is not a surface atom then restart the loop
if            "${randzi} < $(v_wthick - 0.7)" then "jump MDPBB.in loop"
jump MDPBB.in loop
variable      randni equal round(random(1,${ntwall},$s))  # Pick a random "top" wall atom
variable      randni equal round(random(1,2592,$s))  
variable      randni equal round(random(1,2592,234897))  
variable      randatomi equal ${randni}                   # This is to obtain an integer number for atom-id
variable      randatomi equal 1606                   
variable      randzi equal z[${randatomi}]                # Determine the z coordinate of the chosen atom
variable      randzi equal z[1606]                
# if the chosen atom is not a surface atom then restart the loop
if            "${randzi} < $(v_wthick - 0.7)" then "jump MDPBB.in loop"
jump MDPBB.in loop
variable      randni equal round(random(1,${ntwall},$s))  # Pick a random "top" wall atom
variable      randni equal round(random(1,2592,$s))  
variable      randni equal round(random(1,2592,234897))  
variable      randatomi equal ${randni}                   # This is to obtain an integer number for atom-id
variable      randatomi equal 311                   
variable      randzi equal z[${randatomi}]                # Determine the z coordinate of the chosen atom
variable      randzi equal z[311]                
# if the chosen atom is not a surface atom then restart the loop
if            "${randzi} < $(v_wthick - 0.7)" then "jump MDPBB.in loop"
jump MDPBB.in loop
variable      randni equal round(random(1,${ntwall},$s))  # Pick a random "top" wall atom
variable      randni equal round(random(1,2592,$s))  
variable      randni equal round(random(1,2592,234897))  
variable      randatomi equal ${randni}                   # This is to obtain an integer number for atom-id
variable      randatomi equal 2257                   
variable      randzi equal z[${randatomi}]                # Determine the z coordinate of the chosen atom
variable      randzi equal z[2257]                
# if the chosen atom is not a surface atom then restart the loop
if            "${randzi} < $(v_wthick - 0.7)" then "jump MDPBB.in loop"
jump MDPBB.in loop
variable      randni equal round(random(1,${ntwall},$s))  # Pick a random "top" wall atom
variable      randni equal round(random(1,2592,$s))  
variable      randni equal round(random(1,2592,234897))  
variable      randatomi equal ${randni}                   # This is to obtain an integer number for atom-id
variable      randatomi equal 1560                   
variable      randzi equal z[${randatomi}]                # Determine the z coordinate of the chosen atom
variable      randzi equal z[1560]                
# if the chosen atom is not a surface atom then restart the loop
if            "${randzi} < $(v_wthick - 0.7)" then "jump MDPBB.in loop"
jump MDPBB.in loop
variable      randni equal round(random(1,${ntwall},$s))  # Pick a random "top" wall atom
variable      randni equal round(random(1,2592,$s))  
variable      randni equal round(random(1,2592,234897))  
variable      randatomi equal ${randni}                   # This is to obtain an integer number for atom-id
variable      randatomi equal 2382                   
variable      randzi equal z[${randatomi}]                # Determine the z coordinate of the chosen atom
variable      randzi equal z[2382]                
# if the chosen atom is not a surface atom then restart the loop
if            "${randzi} < $(v_wthick - 0.7)" then "jump MDPBB.in loop"
jump MDPBB.in loop
variable      randni equal round(random(1,${ntwall},$s))  # Pick a random "top" wall atom
variable      randni equal round(random(1,2592,$s))  
variable      randni equal round(random(1,2592,234897))  
variable      randatomi equal ${randni}                   # This is to obtain an integer number for atom-id
variable      randatomi equal 1806                   
variable      randzi equal z[${randatomi}]                # Determine the z coordinate of the chosen atom
variable      randzi equal z[1806]                
# if the chosen atom is not a surface atom then restart the loop
if            "${randzi} < $(v_wthick - 0.7)" then "jump MDPBB.in loop"
jump MDPBB.in loop
variable      randni equal round(random(1,${ntwall},$s))  # Pick a random "top" wall atom
variable      randni equal round(random(1,2592,$s))  
variable      randni equal round(random(1,2592,234897))  
variable      randatomi equal ${randni}                   # This is to obtain an integer number for atom-id
variable      randatomi equal 2327                   
variable      randzi equal z[${randatomi}]                # Determine the z coordinate of the chosen atom
variable      randzi equal z[2327]                
# if the chosen atom is not a surface atom then restart the loop
if            "${randzi} < $(v_wthick - 0.7)" then "jump MDPBB.in loop"
set           atom ${randatomi} type 4                    # Set this grafted wall atom as a new type
set           atom 2327 type 4                    
  1 settings made for type
group         twg id ${randatomi}                         # Add this atom to a top-wall-grafted group
group         twg id 2327                         
7 atoms in group twg
variable      twgcount equal count(twg)
print         "twg contains ${twgcount}"
twg contains 7
print         "i = $(v_i)"                                # The index i should always be equal to the number of atom in twg
i = 7
variable      x0 equal x[${randatomi}]                    # Determine its x-coord
variable      x0 equal x[2327]                    
variable      y0 equal y[${randatomi}]                    # Determine its y-coord
variable      y0 equal y[2327]                    
variable      check0 equal ${check}                       # Count the number of atoms in the simulation
variable      check0 equal 2772                       
variable      b equal ${check}+1                          # The grafted bead id will be one higher after being inserted
variable      b equal 2772+1                          
if            "${twgcount} != $(v_i)" then "jump MDPBB.in loop"
# Otherwise insert the chain directly above the chosen wall atom pointing perpendicular to the wall
create_atoms  1 single ${x0} ${y0} ${z0} mol bs 24987 units box remap yes rotate 0 0 0 1
create_atoms  1 single 23.0173152535389 ${y0} ${z0} mol bs 24987 units box remap yes rotate 0 0 0 1
create_atoms  1 single 23.0173152535389 15.874010519682 ${z0} mol bs 24987 units box remap yes rotate 0 0 0 1
create_atoms  1 single 23.0173152535389 15.874010519682 17 mol bs 24987 units box remap yes rotate 0 0 0 1
Created 30 atoms
  create_atoms CPU = 0.00244498 secs
variable      check1 equal ${check}               # Count the new total number of atoms
variable      check1 equal 2802               
# Check that the molecule has indeed been inserted (This check is no longer an issue).
if            "${check1} != ${check0}" then "create_bonds  single/bond 2 ${randatomi} $b" "next i"
create_bonds  single/bond 2 ${randatomi} $b
create_bonds  single/bond 2 2327 $b
create_bonds  single/bond 2 2327 2773
  2 = max # of 1-2 neighbors
  5 = max # of special neighbors
  special bonds CPU = 0.000756979 secs
next i
jump MDPBB.in loop    # End of the loop
variable      randni equal round(random(1,${ntwall},$s))  # Pick a random "top" wall atom
variable      randni equal round(random(1,2592,$s))  
variable      randni equal round(random(1,2592,234897))  
variable      randatomi equal ${randni}                   # This is to obtain an integer number for atom-id
variable      randatomi equal 1525                   
variable      randzi equal z[${randatomi}]                # Determine the z coordinate of the chosen atom
variable      randzi equal z[1525]                
# if the chosen atom is not a surface atom then restart the loop
if            "${randzi} < $(v_wthick - 0.7)" then "jump MDPBB.in loop"
jump MDPBB.in loop
variable      randni equal round(random(1,${ntwall},$s))  # Pick a random "top" wall atom
variable      randni equal round(random(1,2592,$s))  
variable      randni equal round(random(1,2592,234897))  
variable      randatomi equal ${randni}                   # This is to obtain an integer number for atom-id
variable      randatomi equal 2204                   
variable      randzi equal z[${randatomi}]                # Determine the z coordinate of the chosen atom
variable      randzi equal z[2204]                
# if the chosen atom is not a surface atom then restart the loop
if            "${randzi} < $(v_wthick - 0.7)" then "jump MDPBB.in loop"
jump MDPBB.in loop
variable      randni equal round(random(1,${ntwall},$s))  # Pick a random "top" wall atom
variable      randni equal round(random(1,2592,$s))  
variable      randni equal round(random(1,2592,234897))  
variable      randatomi equal ${randni}                   # This is to obtain an integer number for atom-id
variable      randatomi equal 2172                   
variable      randzi equal z[${randatomi}]                # Determine the z coordinate of the chosen atom
variable      randzi equal z[2172]                
# if the chosen atom is not a surface atom then restart the loop
if            "${randzi} < $(v_wthick - 0.7)" then "jump MDPBB.in loop"
jump MDPBB.in loop
variable      randni equal round(random(1,${ntwall},$s))  # Pick a random "top" wall atom
variable      randni equal round(random(1,2592,$s))  
variable      randni equal round(random(1,2592,234897))  
variable      randatomi equal ${randni}                   # This is to obtain an integer number for atom-id
variable      randatomi equal 1078                   
variable      randzi equal z[${randatomi}]                # Determine the z coordinate of the chosen atom
variable      randzi equal z[1078]                
# if the chosen atom is not a surface atom then restart the loop
if            "${randzi} < $(v_wthick - 0.7)" then "jump MDPBB.in loop"
jump MDPBB.in loop
variable      randni equal round(random(1,${ntwall},$s))  # Pick a random "top" wall atom
variable      randni equal round(random(1,2592,$s))  
variable      randni equal round(random(1,2592,234897))  
variable      randatomi equal ${randni}                   # This is to obtain an integer number for atom-id
variable      randatomi equal 2588                   
variable      randzi equal z[${randatomi}]                # Determine the z coordinate of the chosen atom
variable      randzi equal z[2588]                
# if the chosen atom is not a surface atom then restart the loop
if            "${randzi} < $(v_wthick - 0.7)" then "jump MDPBB.in loop"
set           atom ${randatomi} type 4                    # Set this grafted wall atom as a new type
set           atom 2588 type 4                    
  1 settings made for type
group         twg id ${randatomi}                         # Add this atom to a top-wall-grafted group
group         twg id 2588                         
8 atoms in group twg
variable      twgcount equal count(twg)
print         "twg contains ${twgcount}"
twg contains 8
print         "i = $(v_i)"                                # The index i should always be equal to the number of atom in twg
i = 8
variable      x0 equal x[${randatomi}]                    # Determine its x-coord
variable      x0 equal x[2588]                    
variable      y0 equal y[${randatomi}]                    # Determine its y-coord
variable      y0 equal y[2588]                    
variable      check0 equal ${check}                       # Count the number of atoms in the simulation
variable      check0 equal 2802                       
variable      b equal ${check}+1                          # The grafted bead id will be one higher after being inserted
variable      b equal 2802+1                          
if            "${twgcount} != $(v_i)" then "jump MDPBB.in loop"
# Otherwise insert the chain directly above the chosen wall atom pointing perpendicular to the wall
create_atoms  1 single ${x0} ${y0} ${z0} mol bs 24987 units box remap yes rotate 0 0 0 1
create_atoms  1 single 25.3984168314912 ${y0} ${z0} mol bs 24987 units box remap yes rotate 0 0 0 1
create_atoms  1 single 25.3984168314912 27.7795184094435 ${z0} mol bs 24987 units box remap yes rotate 0 0 0 1
create_atoms  1 single 25.3984168314912 27.7795184094435 17 mol bs 24987 units box remap yes rotate 0 0 0 1
Created 30 atoms
  create_atoms CPU = 0.000314951 secs
variable      check1 equal ${check}               # Count the new total number of atoms
variable      check1 equal 2832               
# Check that the molecule has indeed been inserted (This check is no longer an issue).
if            "${check1} != ${check0}" then "create_bonds  single/bond 2 ${randatomi} $b" "next i"
create_bonds  single/bond 2 ${randatomi} $b
create_bonds  single/bond 2 2588 $b
create_bonds  single/bond 2 2588 2803
  2 = max # of 1-2 neighbors
  5 = max # of special neighbors
  special bonds CPU = 0.000751972 secs
next i
jump MDPBB.in loop    # End of the loop
variable      randni equal round(random(1,${ntwall},$s))  # Pick a random "top" wall atom
variable      randni equal round(random(1,2592,$s))  
variable      randni equal round(random(1,2592,234897))  
variable      randatomi equal ${randni}                   # This is to obtain an integer number for atom-id
variable      randatomi equal 2526                   
variable      randzi equal z[${randatomi}]                # Determine the z coordinate of the chosen atom
variable      randzi equal z[2526]                
# if the chosen atom is not a surface atom then restart the loop
if            "${randzi} < $(v_wthick - 0.7)" then "jump MDPBB.in loop"
jump MDPBB.in loop
variable      randni equal round(random(1,${ntwall},$s))  # Pick a random "top" wall atom
variable      randni equal round(random(1,2592,$s))  
variable      randni equal round(random(1,2592,234897))  
variable      randatomi equal ${randni}                   # This is to obtain an integer number for atom-id
variable      randatomi equal 1878                   
variable      randzi equal z[${randatomi}]                # Determine the z coordinate of the chosen atom
variable      randzi equal z[1878]                
# if the chosen atom is not a surface atom then restart the loop
if            "${randzi} < $(v_wthick - 0.7)" then "jump MDPBB.in loop"
jump MDPBB.in loop
variable      randni equal round(random(1,${ntwall},$s))  # Pick a random "top" wall atom
variable      randni equal round(random(1,2592,$s))  
variable      randni equal round(random(1,2592,234897))  
variable      randatomi equal ${randni}                   # This is to obtain an integer number for atom-id
variable      randatomi equal 2435                   
variable      randzi equal z[${randatomi}]                # Determine the z coordinate of the chosen atom
variable      randzi equal z[2435]                
# if the chosen atom is not a surface atom then restart the loop
if            "${randzi} < $(v_wthick - 0.7)" then "jump MDPBB.in loop"
set           atom ${randatomi} type 4                    # Set this grafted wall atom as a new type
set           atom 2435 type 4                    
  1 settings made for type
group         twg id ${randatomi}                         # Add this atom to a top-wall-grafted group
group         twg id 2435                         
9 atoms in group twg
variable      twgcount equal count(twg)
print         "twg contains ${twgcount}"
twg contains 9
print         "i = $(v_i)"                                # The index i should always be equal to the number of atom in twg
i = 9
variable      x0 equal x[${randatomi}]                    # Determine its x-coord
variable      x0 equal x[2435]                    
variable      y0 equal y[${randatomi}]                    # Determine its y-coord
variable      y0 equal y[2435]                    
variable      check0 equal ${check}                       # Count the number of atoms in the simulation
variable      check0 equal 2832                       
variable      b equal ${check}+1                          # The grafted bead id will be one higher after being inserted
variable      b equal 2832+1                          
if            "${twgcount} != $(v_i)" then "jump MDPBB.in loop"
# Otherwise insert the chain directly above the chosen wall atom pointing perpendicular to the wall
create_atoms  1 single ${x0} ${y0} ${z0} mol bs 24987 units box remap yes rotate 0 0 0 1
create_atoms  1 single 23.0173152535389 ${y0} ${z0} mol bs 24987 units box remap yes rotate 0 0 0 1
create_atoms  1 single 23.0173152535389 20.6362136755866 ${z0} mol bs 24987 units box remap yes rotate 0 0 0 1
create_atoms  1 single 23.0173152535389 20.6362136755866 17 mol bs 24987 units box remap yes rotate 0 0 0 1
Created 30 atoms
  create_atoms CPU = 0.000313997 secs
variable      check1 equal ${check}               # Count the new total number of atoms
variable      check1 equal 2862               
# Check that the molecule has indeed been inserted (This check is no longer an issue).
if            "${check1} != ${check0}" then "create_bonds  single/bond 2 ${randatomi} $b" "next i"
create_bonds  single/bond 2 ${randatomi} $b
create_bonds  single/bond 2 2435 $b
create_bonds  single/bond 2 2435 2833
  2 = max # of 1-2 neighbors
  5 = max # of special neighbors
  special bonds CPU = 0.000751019 secs
next i
jump MDPBB.in loop    # End of the loop
variable      randni equal round(random(1,${ntwall},$s))  # Pick a random "top" wall atom
variable      randni equal round(random(1,2592,$s))  
variable      randni equal round(random(1,2592,234897))  
variable      randatomi equal ${randni}                   # This is to obtain an integer number for atom-id
variable      randatomi equal 612                   
variable      randzi equal z[${randatomi}]                # Determine the z coordinate of the chosen atom
variable      randzi equal z[612]                
# if the chosen atom is not a surface atom then restart the loop
if            "${randzi} < $(v_wthick - 0.7)" then "jump MDPBB.in loop"
set           atom ${randatomi} type 4                    # Set this grafted wall atom as a new type
set           atom 612 type 4                    
  1 settings made for type
group         twg id ${randatomi}                         # Add this atom to a top-wall-grafted group
group         twg id 612                         
10 atoms in group twg
variable      twgcount equal count(twg)
print         "twg contains ${twgcount}"
twg contains 10
print         "i = $(v_i)"                                # The index i should always be equal to the number of atom in twg
i = 10
variable      x0 equal x[${randatomi}]                    # Determine its x-coord
variable      x0 equal x[612]                    
variable      y0 equal y[${randatomi}]                    # Determine its y-coord
variable      y0 equal y[612]                    
variable      check0 equal ${check}                       # Count the number of atoms in the simulation
variable      check0 equal 2862                       
variable      b equal ${check}+1                          # The grafted bead id will be one higher after being inserted
variable      b equal 2862+1                          
if            "${twgcount} != $(v_i)" then "jump MDPBB.in loop"
# Otherwise insert the chain directly above the chosen wall atom pointing perpendicular to the wall
create_atoms  1 single ${x0} ${y0} ${z0} mol bs 24987 units box remap yes rotate 0 0 0 1
create_atoms  1 single 12.6992084157456 ${y0} ${z0} mol bs 24987 units box remap yes rotate 0 0 0 1
create_atoms  1 single 12.6992084157456 11.9055078897615 ${z0} mol bs 24987 units box remap yes rotate 0 0 0 1
create_atoms  1 single 12.6992084157456 11.9055078897615 17 mol bs 24987 units box remap yes rotate 0 0 0 1
Created 30 atoms
  create_atoms CPU = 0.000319004 secs
variable      check1 equal ${check}               # Count the new total number of atoms
variable      check1 equal 2892               
# Check that the molecule has indeed been inserted (This check is no longer an issue).
if            "${check1} != ${check0}" then "create_bonds  single/bond 2 ${randatomi} $b" "next i"
create_bonds  single/bond 2 ${randatomi} $b
create_bonds  single/bond 2 612 $b
create_bonds  single/bond 2 612 2863
  2 = max # of 1-2 neighbors
  5 = max # of special neighbors
  special bonds CPU = 0.000745058 secs
next i
jump MDPBB.in loop    # End of the loop
variable      randni equal round(random(1,${ntwall},$s))  # Pick a random "top" wall atom
variable      randni equal round(random(1,2592,$s))  
variable      randni equal round(random(1,2592,234897))  
variable      randatomi equal ${randni}                   # This is to obtain an integer number for atom-id
variable      randatomi equal 2418                   
variable      randzi equal z[${randatomi}]                # Determine the z coordinate of the chosen atom
variable      randzi equal z[2418]                
# if the chosen atom is not a surface atom then restart the loop
if            "${randzi} < $(v_wthick - 0.7)" then "jump MDPBB.in loop"
jump MDPBB.in loop
variable      randni equal round(random(1,${ntwall},$s))  # Pick a random "top" wall atom
variable      randni equal round(random(1,2592,$s))  
variable      randni equal round(random(1,2592,234897))  
variable      randatomi equal ${randni}                   # This is to obtain an integer number for atom-id
variable      randatomi equal 339                   
variable      randzi equal z[${randatomi}]                # Determine the z coordinate of the chosen atom
variable      randzi equal z[339]                
# if the chosen atom is not a surface atom then restart the loop
if            "${randzi} < $(v_wthick - 0.7)" then "jump MDPBB.in loop"
set           atom ${randatomi} type 4                    # Set this grafted wall atom as a new type
set           atom 339 type 4                    
  1 settings made for type
group         twg id ${randatomi}                         # Add this atom to a top-wall-grafted group
group         twg id 339                         
11 atoms in group twg
variable      twgcount equal count(twg)
print         "twg contains ${twgcount}"
twg contains 11
print         "i = $(v_i)"                                # The index i should always be equal to the number of atom in twg
i = 11
variable      x0 equal x[${randatomi}]                    # Determine its x-coord
variable      x0 equal x[339]                    
variable      y0 equal y[${randatomi}]                    # Determine its y-coord
variable      y0 equal y[339]                    
variable      check0 equal ${check}                       # Count the number of atoms in the simulation
variable      check0 equal 2892                       
variable      b equal ${check}+1                          # The grafted bead id will be one higher after being inserted
variable      b equal 2892+1                          
if            "${twgcount} != $(v_i)" then "jump MDPBB.in loop"
# Otherwise insert the chain directly above the chosen wall atom pointing perpendicular to the wall
create_atoms  1 single ${x0} ${y0} ${z0} mol bs 24987 units box remap yes rotate 0 0 0 1
create_atoms  1 single 5.5559036818887 ${y0} ${z0} mol bs 24987 units box remap yes rotate 0 0 0 1
create_atoms  1 single 5.5559036818887 0 ${z0} mol bs 24987 units box remap yes rotate 0 0 0 1
create_atoms  1 single 5.5559036818887 0 17 mol bs 24987 units box remap yes rotate 0 0 0 1
Created 30 atoms
  create_atoms CPU = 0.000319958 secs
variable      check1 equal ${check}               # Count the new total number of atoms
variable      check1 equal 2922               
# Check that the molecule has indeed been inserted (This check is no longer an issue).
if            "${check1} != ${check0}" then "create_bonds  single/bond 2 ${randatomi} $b" "next i"
create_bonds  single/bond 2 ${randatomi} $b
create_bonds  single/bond 2 339 $b
create_bonds  single/bond 2 339 2893
  2 = max # of 1-2 neighbors
  5 = max # of special neighbors
  special bonds CPU = 0.000770092 secs
next i
jump MDPBB.in loop    # End of the loop
variable      randni equal round(random(1,${ntwall},$s))  # Pick a random "top" wall atom
variable      randni equal round(random(1,2592,$s))  
variable      randni equal round(random(1,2592,234897))  
variable      randatomi equal ${randni}                   # This is to obtain an integer number for atom-id
variable      randatomi equal 2204                   
variable      randzi equal z[${randatomi}]                # Determine the z coordinate of the chosen atom
variable      randzi equal z[2204]                
# if the chosen atom is not a surface atom then restart the loop
if            "${randzi} < $(v_wthick - 0.7)" then "jump MDPBB.in loop"
jump MDPBB.in loop
variable      randni equal round(random(1,${ntwall},$s))  # Pick a random "top" wall atom
variable      randni equal round(random(1,2592,$s))  
variable      randni equal round(random(1,2592,234897))  
variable      randatomi equal ${randni}                   # This is to obtain an integer number for atom-id
variable      randatomi equal 2421                   
variable      randzi equal z[${randatomi}]                # Determine the z coordinate of the chosen atom
variable      randzi equal z[2421]                
# if the chosen atom is not a surface atom then restart the loop
if            "${randzi} < $(v_wthick - 0.7)" then "jump MDPBB.in loop"
jump MDPBB.in loop
variable      randni equal round(random(1,${ntwall},$s))  # Pick a random "top" wall atom
variable      randni equal round(random(1,2592,$s))  
variable      randni equal round(random(1,2592,234897))  
variable      randatomi equal ${randni}                   # This is to obtain an integer number for atom-id
variable      randatomi equal 888                   
variable      randzi equal z[${randatomi}]                # Determine the z coordinate of the chosen atom
variable      randzi equal z[888]                
# if the chosen atom is not a surface atom then restart the loop
if            "${randzi} < $(v_wthick - 0.7)" then "jump MDPBB.in loop"
jump MDPBB.in loop
variable      randni equal round(random(1,${ntwall},$s))  # Pick a random "top" wall atom
variable      randni equal round(random(1,2592,$s))  
variable      randni equal round(random(1,2592,234897))  
variable      randatomi equal ${randni}                   # This is to obtain an integer number for atom-id
variable      randatomi equal 675                   
variable      randzi equal z[${randatomi}]                # Determine the z coordinate of the chosen atom
variable      randzi equal z[675]                
# if the chosen atom is not a surface atom then restart the loop
if            "${randzi} < $(v_wthick - 0.7)" then "jump MDPBB.in loop"
jump MDPBB.in loop
variable      randni equal round(random(1,${ntwall},$s))  # Pick a random "top" wall atom
variable      randni equal round(random(1,2592,$s))  
variable      randni equal round(random(1,2592,234897))  
variable      randatomi equal ${randni}                   # This is to obtain an integer number for atom-id
variable      randatomi equal 1721                   
variable      randzi equal z[${randatomi}]                # Determine the z coordinate of the chosen atom
variable      randzi equal z[1721]                
# if the chosen atom is not a surface atom then restart the loop
if            "${randzi} < $(v_wthick - 0.7)" then "jump MDPBB.in loop"
jump MDPBB.in loop
variable      randni equal round(random(1,${ntwall},$s))  # Pick a random "top" wall atom
variable      randni equal round(random(1,2592,$s))  
variable      randni equal round(random(1,2592,234897))  
variable      randatomi equal ${randni}                   # This is to obtain an integer number for atom-id
variable      randatomi equal 1209                   
variable      randzi equal z[${randatomi}]                # Determine the z coordinate of the chosen atom
variable      randzi equal z[1209]                
# if the chosen atom is not a surface atom then restart the loop
if            "${randzi} < $(v_wthick - 0.7)" then "jump MDPBB.in loop"
jump MDPBB.in loop
variable      randni equal round(random(1,${ntwall},$s))  # Pick a random "top" wall atom
variable      randni equal round(random(1,2592,$s))  
variable      randni equal round(random(1,2592,234897))  
variable      randatomi equal ${randni}                   # This is to obtain an integer number for atom-id
variable      randatomi equal 375                   
variable      randzi equal z[${randatomi}]                # Determine the z coordinate of the chosen atom
variable      randzi equal z[375]                
# if the chosen atom is not a surface atom then restart the loop
if            "${randzi} < $(v_wthick - 0.7)" then "jump MDPBB.in loop"
set           atom ${randatomi} type 4                    # Set this grafted wall atom as a new type
set           atom 375 type 4                    
  1 settings made for type
group         twg id ${randatomi}                         # Add this atom to a top-wall-grafted group
group         twg id 375                         
12 atoms in group twg
variable      twgcount equal count(twg)
print         "twg contains ${twgcount}"
twg contains 12
print         "i = $(v_i)"                                # The index i should always be equal to the number of atom in twg
i = 12
variable      x0 equal x[${randatomi}]                    # Determine its x-coord
variable      x0 equal x[375]                    
variable      y0 equal y[${randatomi}]                    # Determine its y-coord
variable      y0 equal y[375]                    
variable      check0 equal ${check}                       # Count the number of atoms in the simulation
variable      check0 equal 2922                       
variable      b equal ${check}+1                          # The grafted bead id will be one higher after being inserted
variable      b equal 2922+1                          
if            "${twgcount} != $(v_i)" then "jump MDPBB.in loop"
# Otherwise insert the chain directly above the chosen wall atom pointing perpendicular to the wall
create_atoms  1 single ${x0} ${y0} ${z0} mol bs 24987 units box remap yes rotate 0 0 0 1
create_atoms  1 single 5.5559036818887 ${y0} ${z0} mol bs 24987 units box remap yes rotate 0 0 0 1
create_atoms  1 single 5.5559036818887 1.5874010519682 ${z0} mol bs 24987 units box remap yes rotate 0 0 0 1
create_atoms  1 single 5.5559036818887 1.5874010519682 17 mol bs 24987 units box remap yes rotate 0 0 0 1
Created 30 atoms
  create_atoms CPU = 0.000334978 secs
variable      check1 equal ${check}               # Count the new total number of atoms
variable      check1 equal 2952               
# Check that the molecule has indeed been inserted (This check is no longer an issue).
if            "${check1} != ${check0}" then "create_bonds  single/bond 2 ${randatomi} $b" "next i"
create_bonds  single/bond 2 ${randatomi} $b
create_bonds  single/bond 2 375 $b
create_bonds  single/bond 2 375 2923
  2 = max # of 1-2 neighbors
  5 = max # of special neighbors
  special bonds CPU = 0.000777006 secs
next i
jump MDPBB.in loop    # End of the loop
variable      randni equal round(random(1,${ntwall},$s))  # Pick a random "top" wall atom
variable      randni equal round(random(1,2592,$s))  
variable      randni equal round(random(1,2592,234897))  
variable      randatomi equal ${randni}                   # This is to obtain an integer number for atom-id
variable      randatomi equal 2387                   
variable      randzi equal z[${randatomi}]                # Determine the z coordinate of the chosen atom
variable      randzi equal z[2387]                
# if the chosen atom is not a surface atom then restart the loop
if            "${randzi} < $(v_wthick - 0.7)" then "jump MDPBB.in loop"
set           atom ${randatomi} type 4                    # Set this grafted wall atom as a new type
set           atom 2387 type 4                    
  1 settings made for type
group         twg id ${randatomi}                         # Add this atom to a top-wall-grafted group
group         twg id 2387                         
13 atoms in group twg
variable      twgcount equal count(twg)
print         "twg contains ${twgcount}"
twg contains 13
print         "i = $(v_i)"                                # The index i should always be equal to the number of atom in twg
i = 13
variable      x0 equal x[${randatomi}]                    # Determine its x-coord
variable      x0 equal x[2387]                    
variable      y0 equal y[${randatomi}]                    # Determine its y-coord
variable      y0 equal y[2387]                    
variable      check0 equal ${check}                       # Count the number of atoms in the simulation
variable      check0 equal 2952                       
variable      b equal ${check}+1                          # The grafted bead id will be one higher after being inserted
variable      b equal 2952+1                          
if            "${twgcount} != $(v_i)" then "jump MDPBB.in loop"
# Otherwise insert the chain directly above the chosen wall atom pointing perpendicular to the wall
create_atoms  1 single ${x0} ${y0} ${z0} mol bs 24987 units box remap yes rotate 0 0 0 1
create_atoms  1 single 18.2551120976343 ${y0} ${z0} mol bs 24987 units box remap yes rotate 0 0 0 1
create_atoms  1 single 18.2551120976343 19.0488126236184 ${z0} mol bs 24987 units box remap yes rotate 0 0 0 1
create_atoms  1 single 18.2551120976343 19.0488126236184 17 mol bs 24987 units box remap yes rotate 0 0 0 1
Created 30 atoms
  create_atoms CPU = 0.000315189 secs
variable      check1 equal ${check}               # Count the new total number of atoms
variable      check1 equal 2982               
# Check that the molecule has indeed been inserted (This check is no longer an issue).
if            "${check1} != ${check0}" then "create_bonds  single/bond 2 ${randatomi} $b" "next i"
create_bonds  single/bond 2 ${randatomi} $b
create_bonds  single/bond 2 2387 $b
create_bonds  single/bond 2 2387 2953
  2 = max # of 1-2 neighbors
  5 = max # of special neighbors
  special bonds CPU = 0.000764132 secs
next i
jump MDPBB.in loop    # End of the loop
variable      randni equal round(random(1,${ntwall},$s))  # Pick a random "top" wall atom
variable      randni equal round(random(1,2592,$s))  
variable      randni equal round(random(1,2592,234897))  
variable      randatomi equal ${randni}                   # This is to obtain an integer number for atom-id
variable      randatomi equal 2480                   
variable      randzi equal z[${randatomi}]                # Determine the z coordinate of the chosen atom
variable      randzi equal z[2480]                
# if the chosen atom is not a surface atom then restart the loop
if            "${randzi} < $(v_wthick - 0.7)" then "jump MDPBB.in loop"
set           atom ${randatomi} type 4                    # Set this grafted wall atom as a new type
set           atom 2480 type 4                    
  1 settings made for type
group         twg id ${randatomi}                         # Add this atom to a top-wall-grafted group
group         twg id 2480                         
14 atoms in group twg
variable      twgcount equal count(twg)
print         "twg contains ${twgcount}"
twg contains 14
print         "i = $(v_i)"                                # The index i should always be equal to the number of atom in twg
i = 14
variable      x0 equal x[${randatomi}]                    # Determine its x-coord
variable      x0 equal x[2480]                    
variable      y0 equal y[${randatomi}]                    # Determine its y-coord
variable      y0 equal y[2480]                    
variable      check0 equal ${check}                       # Count the number of atoms in the simulation
variable      check0 equal 2982                       
variable      b equal ${check}+1                          # The grafted bead id will be one higher after being inserted
variable      b equal 2982+1                          
if            "${twgcount} != $(v_i)" then "jump MDPBB.in loop"
# Otherwise insert the chain directly above the chosen wall atom pointing perpendicular to the wall
create_atoms  1 single ${x0} ${y0} ${z0} mol bs 24987 units box remap yes rotate 0 0 0 1
create_atoms  1 single 25.3984168314912 ${y0} ${z0} mol bs 24987 units box remap yes rotate 0 0 0 1
create_atoms  1 single 25.3984168314912 23.0173152535389 ${z0} mol bs 24987 units box remap yes rotate 0 0 0 1
create_atoms  1 single 25.3984168314912 23.0173152535389 17 mol bs 24987 units box remap yes rotate 0 0 0 1
Created 30 atoms
  create_atoms CPU = 0.000350952 secs
variable      check1 equal ${check}               # Count the new total number of atoms
variable      check1 equal 3012               
# Check that the molecule has indeed been inserted (This check is no longer an issue).
if            "${check1} != ${check0}" then "create_bonds  single/bond 2 ${randatomi} $b" "next i"
create_bonds  single/bond 2 ${randatomi} $b
create_bonds  single/bond 2 2480 $b
create_bonds  single/bond 2 2480 2983
  2 = max # of 1-2 neighbors
  5 = max # of special neighbors
  special bonds CPU = 0.000761986 secs
next i
jump MDPBB.in loop    # End of the loop
variable      randni equal round(random(1,${ntwall},$s))  # Pick a random "top" wall atom
variable      randni equal round(random(1,2592,$s))  
variable      randni equal round(random(1,2592,234897))  
variable      randatomi equal ${randni}                   # This is to obtain an integer number for atom-id
variable      randatomi equal 2344                   
variable      randzi equal z[${randatomi}]                # Determine the z coordinate of the chosen atom
variable      randzi equal z[2344]                
# if the chosen atom is not a surface atom then restart the loop
if            "${randzi} < $(v_wthick - 0.7)" then "jump MDPBB.in loop"
set           atom ${randatomi} type 4                    # Set this grafted wall atom as a new type
set           atom 2344 type 4                    
  1 settings made for type
group         twg id ${randatomi}                         # Add this atom to a top-wall-grafted group
group         twg id 2344                         
15 atoms in group twg
variable      twgcount equal count(twg)
print         "twg contains ${twgcount}"
twg contains 15
print         "i = $(v_i)"                                # The index i should always be equal to the number of atom in twg
i = 15
variable      x0 equal x[${randatomi}]                    # Determine its x-coord
variable      x0 equal x[2344]                    
variable      y0 equal y[${randatomi}]                    # Determine its y-coord
variable      y0 equal y[2344]                    
variable      check0 equal ${check}                       # Count the number of atoms in the simulation
variable      check0 equal 3012                       
variable      b equal ${check}+1                          # The grafted bead id will be one higher after being inserted
variable      b equal 3012+1                          
if            "${twgcount} != $(v_i)" then "jump MDPBB.in loop"
# Otherwise insert the chain directly above the chosen wall atom pointing perpendicular to the wall
create_atoms  1 single ${x0} ${y0} ${z0} mol bs 24987 units box remap yes rotate 0 0 0 1
create_atoms  1 single 14.2866094677138 ${y0} ${z0} mol bs 24987 units box remap yes rotate 0 0 0 1
create_atoms  1 single 14.2866094677138 18.2551120976343 ${z0} mol bs 24987 units box remap yes rotate 0 0 0 1
create_atoms  1 single 14.2866094677138 18.2551120976343 17 mol bs 24987 units box remap yes rotate 0 0 0 1
Created 30 atoms
  create_atoms CPU = 0.000324011 secs
variable      check1 equal ${check}               # Count the new total number of atoms
variable      check1 equal 3042               
# Check that the molecule has indeed been inserted (This check is no longer an issue).
if            "${check1} != ${check0}" then "create_bonds  single/bond 2 ${randatomi} $b" "next i"
create_bonds  single/bond 2 ${randatomi} $b
create_bonds  single/bond 2 2344 $b
create_bonds  single/bond 2 2344 3013
  2 = max # of 1-2 neighbors
  5 = max # of special neighbors
  special bonds CPU = 0.000763893 secs
next i
jump MDPBB.in loop    # End of the loop
variable      randni equal round(random(1,${ntwall},$s))  # Pick a random "top" wall atom
variable      randni equal round(random(1,2592,$s))  
variable      randni equal round(random(1,2592,234897))  
variable      randatomi equal ${randni}                   # This is to obtain an integer number for atom-id
variable      randatomi equal 2066                   
variable      randzi equal z[${randatomi}]                # Determine the z coordinate of the chosen atom
variable      randzi equal z[2066]                
# if the chosen atom is not a surface atom then restart the loop
if            "${randzi} < $(v_wthick - 0.7)" then "jump MDPBB.in loop"
jump MDPBB.in loop
variable      randni equal round(random(1,${ntwall},$s))  # Pick a random "top" wall atom
variable      randni equal round(random(1,2592,$s))  
variable      randni equal round(random(1,2592,234897))  
variable      randatomi equal ${randni}                   # This is to obtain an integer number for atom-id
variable      randatomi equal 1137                   
variable      randzi equal z[${randatomi}]                # Determine the z coordinate of the chosen atom
variable      randzi equal z[1137]                
# if the chosen atom is not a surface atom then restart the loop
if            "${randzi} < $(v_wthick - 0.7)" then "jump MDPBB.in loop"
jump MDPBB.in loop
variable      randni equal round(random(1,${ntwall},$s))  # Pick a random "top" wall atom
variable      randni equal round(random(1,2592,$s))  
variable      randni equal round(random(1,2592,234897))  
variable      randatomi equal ${randni}                   # This is to obtain an integer number for atom-id
variable      randatomi equal 962                   
variable      randzi equal z[${randatomi}]                # Determine the z coordinate of the chosen atom
variable      randzi equal z[962]                
# if the chosen atom is not a surface atom then restart the loop
if            "${randzi} < $(v_wthick - 0.7)" then "jump MDPBB.in loop"
jump MDPBB.in loop
variable      randni equal round(random(1,${ntwall},$s))  # Pick a random "top" wall atom
variable      randni equal round(random(1,2592,$s))  
variable      randni equal round(random(1,2592,234897))  
variable      randatomi equal ${randni}                   # This is to obtain an integer number for atom-id
variable      randatomi equal 1818                   
variable      randzi equal z[${randatomi}]                # Determine the z coordinate of the chosen atom
variable      randzi equal z[1818]                
# if the chosen atom is not a surface atom then restart the loop
if            "${randzi} < $(v_wthick - 0.7)" then "jump MDPBB.in loop"
jump MDPBB.in loop
variable      randni equal round(random(1,${ntwall},$s))  # Pick a random "top" wall atom
variable      randni equal round(random(1,2592,$s))  
variable      randni equal round(random(1,2592,234897))  
variable      randatomi equal ${randni}                   # This is to obtain an integer number for atom-id
variable      randatomi equal 243                   
variable      randzi equal z[${randatomi}]                # Determine the z coordinate of the chosen atom
variable      randzi equal z[243]                
# if the chosen atom is not a surface atom then restart the loop
if            "${randzi} < $(v_wthick - 0.7)" then "jump MDPBB.in loop"
jump MDPBB.in loop
variable      randni equal round(random(1,${ntwall},$s))  # Pick a random "top" wall atom
variable      randni equal round(random(1,2592,$s))  
variable      randni equal round(random(1,2592,234897))  
variable      randatomi equal ${randni}                   # This is to obtain an integer number for atom-id
variable      randatomi equal 982                   
variable      randzi equal z[${randatomi}]                # Determine the z coordinate of the chosen atom
variable      randzi equal z[982]                
# if the chosen atom is not a surface atom then restart the loop
if            "${randzi} < $(v_wthick - 0.7)" then "jump MDPBB.in loop"
jump MDPBB.in loop
variable      randni equal round(random(1,${ntwall},$s))  # Pick a random "top" wall atom
variable      randni equal round(random(1,2592,$s))  
variable      randni equal round(random(1,2592,234897))  
variable      randatomi equal ${randni}                   # This is to obtain an integer number for atom-id
variable      randatomi equal 1131                   
variable      randzi equal z[${randatomi}]                # Determine the z coordinate of the chosen atom
variable      randzi equal z[1131]                
# if the chosen atom is not a surface atom then restart the loop
if            "${randzi} < $(v_wthick - 0.7)" then "jump MDPBB.in loop"
set           atom ${randatomi} type 4                    # Set this grafted wall atom as a new type
set           atom 1131 type 4                    
  1 settings made for type
group         twg id ${randatomi}                         # Add this atom to a top-wall-grafted group
group         twg id 1131                         
16 atoms in group twg
variable      twgcount equal count(twg)
print         "twg contains ${twgcount}"
twg contains 16
[...]
 4957000    5.2325424     1.484177    3.7483654  -0.19787558   0.98956398    1.2756632   0.79109172   -1.2345679            1    2.5809613    3.7519202    3.7781851   0.21277859  0.011729354  -0.07170461  0.021116902    2.4139826    2.3939917   0.69383066        0.075    1.9195725          0.5  0.077092295    6.4857324    2.5499861    30.694244 0.00043562406   -0.1931297  0.010259193   0.21448333   0.12045185   0.93097062 
 4958000    5.2431463    1.5036715    3.7394747  -0.20467027    1.0025618    1.2961353   0.79890207   -1.2345679            1    2.7742835    3.8767751    3.9465653   0.49950996  -0.02131644  -0.13765214 0.0037645236    2.6056562    2.5843134   0.69208277        0.075     1.933487          0.5  0.076898086    6.5021124    2.5438438    30.694244  0.012857743  -0.23312783 0.0030170518   0.19065206   0.83362843    3.0794105 
 4959000    5.2378153    1.4982125    3.7396027  -0.21070094   0.99892208    1.2864149   0.79948399   -1.2345679            1    2.8422659    3.9385521    3.9594534   0.62879215  0.025271602  0.039941195  0.013280818    2.6735158    2.6537205   0.70430117        0.075    1.9284066          0.5  0.078255686    6.3893121    2.5879401    30.694244 0.0090234772  -0.20869912  0.016040703    0.2258692    1.3324814    1.2554461 
 4960000    5.2652782    1.5013297    3.7639485  -0.19280966    1.0010004    1.2809094   0.80682882   -1.2345679            1    2.6312146    3.7835482    3.8268347   0.28326082 0.0021956543  0.037453455 -0.0049978619    2.4609142    2.4434761    0.7017893        0.075    1.9291122          0.5  0.077976589     6.412181     2.553279    30.694244 -0.012883223  -0.21641197 -0.020618192   0.18408854   -1.3132318    3.6334616 
 4961000    5.2275406    1.4915376    3.7360029  -0.20746072   0.99447164    1.2684184   0.80443887   -1.2345679            1    2.7050012    3.8127918    3.8801052   0.42210664  0.011164779  0.066410569 -0.0042455864    2.5352053    2.5190935   0.69841547        0.075    1.9226088          0.5  0.077601718    6.4431563    2.5376976    30.694244 -0.0012088683  -0.21279213 0.0055979286   0.21394206    1.6133064    1.3189666 
 4962000    5.2309128    1.4804957    3.7504171  -0.20512748   0.98710952    1.2610974   0.79704678   -1.2345679            1    2.7828818      3.85842    3.9605571   0.52966828  0.014642841 0.0071630015  0.039250156    2.6146461    2.5980471   0.69304348        0.075    1.8919915          0.5  0.077004831    6.4930991    2.5490341    30.694244 0.0045494483  -0.19733712 -0.0033891969   0.20836978    1.3286498   -1.3051521 
 4963000    5.2222699    1.4843316    3.7379383  -0.20025138   0.98966707    1.2595218   0.80247478   -1.2345679            1    2.6965211    3.8110264    3.8854164    0.3931204 -0.0015352211 -0.078148647 -0.014534734    2.5271397    2.5119173   0.69735984        0.075    1.9087115          0.5  0.077484427    6.4529096    2.5695991    30.694244 -0.012251064  -0.17101617 -0.0034178656   0.17400335  -0.58390451    1.4050678 
 4964000    5.2150994    1.4841588    3.7309406  -0.20542813   0.98955187    1.2688673   0.79579018   -1.2345679            1    2.7197433    3.8491747    3.8976126   0.41244269 0.0026975142  -0.12909191  0.015654617    2.5517729    2.5337698   0.71043757        0.075    1.9020855          0.5  0.078937508    6.3341244    2.5681038    30.694244  0.010151283  -0.20725297 -0.0019736244   0.20983103   0.31647938   -2.0685376 
 4965000    5.2232736    1.4780858    3.7451878   -0.2044915   0.98550274    1.2627469   0.79317854   -1.2345679            1    2.5935247    3.7486164    3.7913505   0.24060733 -0.0089911756  -0.15563044 -0.0055609733    2.4261056    2.4084483   0.71256961        0.075    1.9368991          0.5  0.079174402    6.3151725    2.5538648    30.694244 -0.014318364  -0.21036113 -0.0085188256   0.17482512    3.6397198  -0.91989908 
 4966000    5.2204488    1.4807538     3.739695   -0.1975292    0.9872816    1.2672053   0.79309715   -1.2345679            1    2.7265613    3.8354186    3.9194395   0.42482567 -0.0044264236   -0.1322932  0.012128869    2.5591592    2.5408313   0.69871253        0.075    1.9411603          0.5  0.077634726    6.4404169    2.5446489    30.694244 -0.0018825052  -0.20701848  0.013627649    0.1862666     1.607381    4.1720585 
 4967000    5.2361052    1.4842774    3.7518277  -0.20087129   0.98963096    1.2421774    0.8144573   -1.2345679            1    2.6574328    3.7781308    3.8507187   0.34344895  0.012928769  -0.13470958 -0.004739371    2.4855222    2.4753711   0.69897221        0.075    1.9088263          0.5  0.077663579    6.4380242    2.5563733    30.694244 -0.0039899318  -0.17928093 0.0033246167    0.1965734    1.2826357    3.4044515 
 4968000    5.2190805    1.4771611    3.7419194  -0.19993983   0.98488619    1.2518072    0.7997301   -1.2345679            1    2.7135387    3.8209535    3.8846068   0.43505593 -0.014455231  -0.11995775 -0.022065127    2.5447367    2.5300657   0.69988314        0.075    1.9345792          0.5  0.077764793    6.4296448    2.5460008    30.694244 0.0067901472  -0.17871516  0.012755162   0.21307856    2.5131725    0.3070838 
 4969000    5.2099887    1.4778208    3.7321679  -0.20641692   0.98532604    1.2594226   0.79518749   -1.2345679            1     2.611055    3.7369003    3.8312864    0.2649783 -0.012540219   -0.1240462 -0.034440562    2.4432118    2.4264657    0.7003329        0.075    1.9352636          0.5  0.077814766    6.4255157    2.5437985    30.694244 0.00050901539  -0.18644975  0.011644457   0.17514453    1.9811187     3.185057 
 4970000    5.2234338    1.4784254    3.7450084  -0.19954392   0.98572916    1.2559427   0.79828701   -1.2345679            1    2.6107778    3.7807481    3.8160877   0.23549766 0.0087703489  -0.28331787  0.015901029    2.4422804    2.4266986   0.70309203        0.075    1.9156647          0.5  0.078121337    6.4003001     2.560494    30.694244 0.0037028565  -0.14314045  0.010845228   0.21680165    4.4583747    2.2545816 
 4971000    5.2192148    1.4789042    3.7403106  -0.19803447   0.98604837    1.2473055   0.80482542   -1.2345679            1     2.564866    3.7367792    3.7625928   0.19522597 -0.010954172  -0.10173224  0.082268343    2.3949884    2.3820527   0.70413227        0.075    1.8874532          0.5  0.078236918    6.3908448    2.5470626    30.694244 -0.0083728546  -0.20550792 -0.0037088245   0.20750144   0.88947489    -3.754778 
 4972000    5.2127344    1.4718791    3.7408553  -0.19976489   0.98136443    1.2633343   0.78575796   -1.2345679            1    2.7980799    3.8820046    3.9709512   0.54128389  0.004080386  0.005393406 -0.0070669171     2.632227    2.6129173     0.700476        0.075    1.8830456          0.5  0.077830666     6.424203    2.5428891    30.694244 -0.0055187044  -0.18646679 -0.0094806561   0.22897172   0.61433966    1.3540504 
 4973000    5.2137863    1.4915095    3.7222768  -0.19290593   0.99445288    1.2678385   0.80480976   -1.2345679            1    2.6979567    3.8747758    3.8678708    0.3512234 -0.0090713753 -0.035839097 0.0023218532    2.5280824    2.5121339   0.69284935        0.075     1.890134          0.5  0.076983261    6.4949184    2.5603203    30.694244  0.017703515  -0.22805003  0.020051208   0.22741799   -1.6080479    1.9143015 
 4974000    5.2075628    1.4701094    3.7374534  -0.18760493   0.98018453    1.2584883   0.78712353   -1.2345679            1    2.6649542    3.8163868    3.8357157      0.34276 -0.045887577  0.026657059  0.016260659    2.4988131    2.4805019   0.69352048        0.075    1.9270831          0.5  0.077057831    6.4886332    2.5517039    30.694244 -0.00094568883  -0.21761066 -0.010206734   0.22044439   -1.7759756    1.3587277 
 4975000    5.2056289    1.4894394    3.7161896  -0.21268932   0.99307263    1.2733119   0.79867016   -1.2345679            1    2.8072963     3.882141    3.9505277   0.58922019 0.0076769752 0.0097790713 -0.0086515699     2.638718    2.6206713    0.7070892        0.075    1.9331776          0.5  0.078565466    6.3641193    2.5238294    30.694244 0.0061249628  -0.21024341 0.0067670606   0.18793219  -0.28126105    2.3745547 
 4976000    5.2306188    1.5044601    3.7261586  -0.20830324    1.0030876    1.2801759    0.8108751   -1.2345679            1    2.6657145    3.7943971    3.8707583   0.33198809  0.012210595  -0.10010653  0.060413443      2.49456    2.4780835   0.71918979        0.075     1.930976          0.5  0.079909977     6.257041    2.5376338    30.694244 -0.0082812001  -0.18963711  0.014469241   0.18268508   0.93779117    4.6618041 
 4977000    5.2414655    1.5059465     3.735519  -0.20130805    1.0040786     1.283193   0.81045942   -1.2345679            1    2.6944906    3.8464618    3.8703337   0.36667635 -0.021263104 -0.096839148 -0.057855711    2.5234239    2.5064174   0.69551736        0.075    1.9244143          0.5  0.077279706    6.4700039    2.5282261    30.694244 0.0014368601   -0.2091774  0.008749974   0.20016432   0.49513515  -0.48191422 
 4978000    5.1960825    1.4715733    3.7245092  -0.20470554   0.98116059     1.246906   0.79682012   -1.2345679            1    2.5926444    3.7409434    3.7948116    0.2421782 -0.0070845183 -0.094930997 -0.0059168872    2.4244566    2.4098897   0.68392489        0.075    1.9325739          0.5  0.075991654    6.5796699    2.5547857    30.694244 -0.0063611414   -0.2071771 -0.0018222701   0.20722878   0.39033256    -6.329447 
 4979000    5.2161867    1.4869974    3.7291894  -0.20453092   0.99144444    1.2707675   0.79767784   -1.2345679            1    2.7166372    3.8392411    3.8968392   0.41383122 -0.015250985 -0.034490401  0.032132682    2.5482683    2.5303851   0.69617129        0.075    1.9221213          0.5  0.077352365    6.4639264    2.5587465    30.694244 0.0083253677  -0.21464836 -0.0087710922   0.15688769    1.4118122    1.6106574 
 4980000    5.2270124    1.4796087    3.7474036  -0.20808194   0.98651812    1.2705746   0.78946378   -1.2345679            1    2.6381683    3.7444188    3.8215206   0.34856552 -0.016652008  -0.11521722  0.033912665    2.4715332    2.4519446   0.70065979        0.075    1.9280654          0.5  0.077851088    6.4225179    2.5364618    30.694244 -0.0069185509  -0.21589647 -0.017306792   0.21149213    0.5068991   0.53040435 
 4981000    5.2577829    1.5074456    3.7503373  -0.19665734    1.0050782     1.289886   0.80750565   -1.2345679            1    2.6686662    3.7801692    3.8598075   0.36602195 -0.012811683 -0.085343778  0.049077838     2.498223    2.4796121   0.69817317        0.075    1.9197382          0.5  0.077574797    6.4453923    2.5587909    30.694244 0.0082552969  -0.20081729 -0.0030641976   0.23116775    1.4341802   0.63639506 
 4982000     5.261258    1.5045331    3.7567249  -0.19670483    1.0031363     1.291299   0.80323381   -1.2345679            1    2.6540697    3.7750589    3.8479747   0.33917543  0.013828067  -0.11116402 -0.0040931304    2.4845281    2.4648084   0.68344945        0.075    1.9512518          0.5  0.075938828     6.584247    2.5516459    30.694244 0.0098929973  -0.17085638 0.0034889641   0.16950149  -0.50827158    2.6918631 
 4983000     5.243969    1.5181405    3.7258285  -0.19381594    1.0122089    1.3152392   0.80198437   -1.2345679            1    2.7557256    3.8920363    3.9300131   0.44512726  0.017018498 -0.043603213 -0.033993638    2.5864477    2.5629555   0.68848847        0.075    1.9339204          0.5  0.076498719    6.5360572    2.5512409    30.694244   0.01942006  -0.18061675 -0.020465139   0.21268109   0.98140405   0.86439802 
 4984000    5.2648356    1.5216822    3.7431534  -0.19917837    1.0145703    1.3027444   0.81466215   -1.2345679            1    2.7033966    3.8326335     3.873455   0.40410149  0.013326478 -0.043127942  0.039973956    2.5314428    2.5124579   0.69432162        0.075    1.8926416          0.5  0.077146847    6.4811463    2.5463353    30.694244 0.0097463649  -0.21033887 -0.0024143116   0.18435543  -0.41149949    2.4261219 
 4985000    5.2835289    1.5110737    3.7724552  -0.20769927    1.0074972    1.3023241   0.80296804   -1.2345679            1    2.6423776    3.7851114    3.8246526   0.31736891 -0.0030410564  -0.17852558 -0.0056979674    2.4728921    2.4515005   0.69498707        0.075    1.8790912          0.5  0.077220785    6.4749406    2.5402656    30.694244 -0.0061905775   -0.1812936 -0.0078107981   0.16589919    1.2020087    2.4911052 
 4986000    5.2563693    1.5121027    3.7442666  -0.20006897    1.0081832    1.3128372   0.79683042   -1.2345679            1     2.713093    3.8171804    3.8942287   0.42787006 0.0097892256  -0.25789601 -0.0081287774     2.544903     2.520675   0.69309723        0.075    1.9290493          0.5  0.077010803    6.4925956    2.5657583    30.694244   0.01600619  -0.18613246 -0.013010479   0.17688165    1.5423828    2.1846256 
 4987000    5.2849572    1.5246901    3.7602671  -0.19020294    1.0165758    1.2980724   0.82130484   -1.2345679            1    2.6861597    3.8632796    3.8543547   0.34084477 -0.0059063711   -0.2105338  0.041577895    2.5128038    2.4959057   0.69129076        0.075    1.9420051          0.5  0.076810085    6.5095619    2.5298339    30.694244 -0.0048035198  -0.19055913 -0.013063903   0.21829778    1.2478909   -1.9689038 
 4988000    5.2637673    1.5000898    3.7636776  -0.20270412    1.0001737    1.2822241   0.80451497   -1.2345679            1    2.7177557    3.8203686    3.9100544   0.42284422  0.016981576  -0.02747859 -0.0012991673    2.5479437    2.5298246   0.70078524        0.075    1.9294662          0.5  0.077865027    6.4213681    2.5578177    30.694244 0.0040939239  -0.20956638 -0.016276718   0.20925772   0.63171289    1.5420054 
 4989000    5.2465087    1.5072773    3.7392314  -0.19391323    1.0049659     1.286703   0.80952575   -1.2345679            1    2.6361605    3.7978483    3.8171733   0.29345977 -0.0014458987  0.019726862  -0.04256047    2.4652908    2.4475728   0.69580741        0.075    1.9452701          0.5  0.077311935    6.4673068    2.5423366    30.694244 -0.014243427  -0.18496047  0.016456918   0.21884797   0.66976574    2.6781684 
 4990000    5.2673151    1.5017299    3.7655852  -0.18050014    1.0012673    1.2806045   0.80749271   -1.2345679            1    2.7863138    3.9419535    3.9381368   0.47885122 -0.0072375683 -0.048411225  0.007232562    2.6158733      2.59862   0.68964972        0.075    1.9156052          0.5  0.076627747    6.5250516    2.5349111    30.694244 0.0096013505  -0.17164078 -0.0080772929   0.22161509    1.2784384    0.3565701 
 4991000    5.2596463    1.5063333     3.753313  -0.19980579    1.0043365    1.2950073   0.80269272   -1.2345679            1    2.8060339    3.9166023    3.9469511   0.55454824 -0.028652543 -0.042839051 -0.022387079    2.6366065    2.6162291   0.69540869        0.075    1.9251482          0.5  0.077267633    6.4710149    2.5552118    30.694244 0.0085174834  -0.20520286 0.00095899721   0.21469829   0.17910027   0.43093795 
 4992000    5.2757019     1.489614    3.7860878  -0.19736583   0.99318909    1.2776532   0.79585293   -1.2345679            1    2.5857644    3.7325757    3.8027559   0.22196168 -0.033946596 -0.067012307 -0.014805779    2.4177808    2.3985032   0.70250775        0.075    1.9215952          0.5  0.078056416    6.4056233    2.5478352    30.694244 -0.0018576761   -0.2032062 0.0096641466   0.21583831    2.2015639   0.64460235 
 4993000    5.2490032    1.4847093    3.7642939  -0.19594642   0.98991889    1.2747807   0.79230601   -1.2345679            1    2.7203888    3.8331757    3.8771593    0.4508314 -0.0030782618  -0.10696647 -0.024165344    2.5531538    2.5335486   0.69853423        0.075    1.9011245          0.5  0.077614914    6.4420609    2.5558125    30.694244 0.0052231769  -0.18370433  0.011529804   0.24315027   -1.6556535 -0.053750802 
 4994000    5.2775336    1.4962567    3.7812769  -0.18836164   0.99761802    1.2690105   0.80935951   -1.2345679            1     2.697568    3.8132415    3.8843723   0.39509033  0.014481166  -0.02445941 -0.011316766    2.5267335    2.5115735   0.68484061        0.075    1.9050299          0.5  0.076093401     6.570872    2.5341896    30.694244 -0.0046456996  -0.16880248   0.01280092    0.1863025   0.32706362    3.0699781 
 4995000    5.2661604    1.5023538    3.7638066  -0.19182722    1.0016832    1.2936849   0.79911477   -1.2345679            1    2.6838955    3.8371403    3.8566005   0.35794568  0.010105035 -0.035974156 -0.069800325    2.5152233    2.4942846   0.69612286        0.075    1.8539741          0.5  0.077346984    6.4643761      2.57043    30.694244 -0.011540158  -0.19160327 -0.0034901553   0.18918461  -0.85156441   0.11803159 
 4996000    5.2467224     1.496959    3.7497635  -0.20574744   0.99808627    1.2930959   0.79342842   -1.2345679            1    2.6559237    3.7928609    3.8422099   0.33270016 -0.0052233878 -0.080178524  0.019003125    2.4884517     2.466399   0.70014615        0.075    1.8861612          0.5  0.077794017    6.4272295    2.5380313    30.694244 0.0078231511  -0.17877505 -0.0024455934   0.18442896  -0.95294144   0.89473606 
 4997000    5.2335665    1.4948505    3.7387159   -0.2002104    0.9966805    1.2890146   0.79388026   -1.2345679            1    2.5971856    3.7463787    3.8149118   0.23026627 -0.011768488 -0.021689782 -0.010494318    2.4296183    2.4082591   0.70396527        0.075    1.9289975          0.5  0.078218363    6.3923608    2.5550628    30.694244 0.0044262066  -0.21511483 -6.8851164e-05   0.17595679   0.56931634    1.5510925 
 4998000    5.2473805    1.5083132    3.7390673  -0.20261193    1.0056566    1.2860324   0.81116177   -1.2345679            1    2.8151548    3.9327132    3.9669728   0.54577838  0.015155819 -0.080308094 0.0025965976    2.6439398    2.6266654   0.69767429        0.075    1.9271289          0.5  0.077519365    6.4500012    2.5500333    30.694244 0.0043726502  -0.18318888  0.012985089   0.19741889   0.25685045    1.8473532 
 4999000    5.2492006    1.4931063    3.7560943  -0.18683704   0.99551755    1.2765451   0.80056815   -1.2345679            1    2.7206419    3.8612208    3.9149157   0.38578912  0.011570851 -0.099223606 -0.0037383079    2.5516629    2.5335431   0.69049279        0.075    1.9246364          0.5  0.076721422    6.5170847    2.5476983    30.694244  0.016543494  -0.19532281 -0.0015362151   0.18789815   0.51771443    2.3914239 
 5000000    5.2381746    1.5030969    3.7350777   -0.1929609    1.0021787    1.2771145   0.81146058   -1.2345679            1     2.649816    3.8170965    3.8469937   0.28535783 -0.00073764993 -0.078674136  0.019455538    2.4785379    2.4626337   0.69359322        0.075    1.8930042          0.5  0.077065914    6.4879527    2.5407612    30.694244 -0.016412208  -0.20351932 0.0055158305   0.15431582    1.2997789 -0.082908538 
Loop time of 2366.28 on 32 procs for 4000000 steps with 8784 atoms

Performance: 730261.574 tau/day, 1690.420 timesteps/s
100.0% CPU use with 32 MPI tasks x no OpenMP threads

MPI task timing breakdown:
Section |  min time  |  avg time  |  max time  |%varavg| %total
---------------------------------------------------------------
Pair    | 0.46155    | 49.761     | 223.59     |1055.4 |  2.10
Bond    | 1.1432     | 136.65     | 516.35     |1558.2 |  5.77
Neigh   | 499.45     | 523.71     | 555.1      | 101.3 | 22.13
Comm    | 28.958     | 201.45     | 517.83     |1304.1 |  8.51
Output  | 3.1633     | 3.3034     | 7.5333     |  41.8 |  0.14
Modify  | 857.87     | 1261.5     | 1555.6     | 846.9 | 53.31
Other   |            | 189.9      |            |       |  8.02

Nlocal:    274.5 ave 802 max 0 min
Histogram: 16 2 2 0 0 0 0 7 1 4
Nghost:    317.594 ave 853 max 0 min
Histogram: 16 0 0 4 0 0 0 3 3 6
Neighs:    393.875 ave 2089 max 0 min
Histogram: 20 0 5 2 1 0 0 1 0 3

Total # of neighbors = 12604
Ave neighs/atom = 1.43488
Ave special neighs/atom = 6.72131
Neighbor list builds = 618375
Dangerous builds = 0
