9376
Atoms. Timestep: 4000000
1 7.5 3.55271e-15 10.6291
1 8.2937 29.2063 10.6291
1 8.31117 29.9078 9.79154
1 7.55017 29.1568 9.79773
1 9.0874 3.55271e-15 10.6291
1 9.8811 29.2063 10.6291
1 9.90174 29.9042 9.80937
1 9.11826 29.1869 9.84375
1 10.6748 3.55271e-15 10.6291
1 11.4685 29.2063 10.6291
1 11.4696 29.9421 9.80188
1 10.6658 29.1663 9.85957
1 12.2622 3.55271e-15 10.6291
1 13.0559 29.2063 10.6291
1 13.056 29.9424 9.80515
1 12.2783 29.1751 9.82192
1 13.8496 3.55271e-15 10.6291
1 14.6433 29.2063 10.6291
1 14.6339 29.927 9.82534
1 13.8351 29.1896 9.82797
1 15.437 3.55271e-15 10.6291
1 16.2307 29.2063 10.6291
1 16.2151 29.936 9.78449
1 15.4506 29.1834 9.84387
1 17.0244 3.55271e-15 10.6291
1 17.8181 29.2063 10.6291
1 17.8185 29.9239 9.79065
1 17.0244 29.1809 9.83807
1 18.6118 3.55271e-15 10.6291
1 19.4055 29.2063 10.6291
1 19.4056 29.9335 9.80502
1 18.6197 29.1422 9.82173
1 20.1992 3.55271e-15 10.6291
1 20.9929 29.2063 10.6291
1 20.9805 29.9254 9.80444
1 20.1928 29.1806 9.82695
1 21.7866 3.55271e-15 10.6291
1 22.5803 29.2063 10.6291
1 22.5951 29.9303 9.82503
1 21.7721 29.1875 9.81591
1 23.374 3.55271e-15 10.6291
1 24.1677 29.2063 10.6291
1 24.1631 29.9347 9.79829
1 23.3545 29.1886 9.84525
1 24.9614 3.55271e-15 10.6291
1 25.7551 29.2063 10.6291
1 25.7689 29.9325 9.82644
1 24.979 29.1725 9.82157
1 26.5488 3.55271e-15 10.6291
1 27.3425 29.2063 10.6291
1 27.3735 29.9429 9.81535
1 26.5525 29.1771 9.83689
1 28.1362 3.55271e-15 10.6291
1 28.9299 29.2063 10.6291
1 28.9341 29.9323 9.8212
1 28.1395 29.1395 9.82791
1 29.7236 3.55271e-15 10.6291
1 0.517315 29.2063 10.6291
1 0.520064 29.9336 9.78958
1 29.6977 29.1839 9.8284
1 1.31102 3.55271e-15 10.6291
1 2.10472 29.2063 10.6291
1 2.12483 29.9287 9.84174
1 1.29465 29.1768 9.84473
1 2.89842 3.55271e-15 10.6291
1 3.69212 29.2063 10.6291
1 3.67843 29.9309 9.79655
1 2.88723 29.1901 9.82834
1 4.48582 3.55271e-15 10.6291
1 5.27952 29.2063 10.6291
1 5.26898 29.9412 9.78824
1 4.47237 29.1882 9.82018
1 6.07322 3.55271e-15 10.6291
1 6.86692 29.2063 10.6291
1 6.77211 29.9416 9.7734
1 6.04641 29.1536 9.83616
1 7.5 28.4126 10.6291
1 8.2937 27.6189 10.6291
1 8.34095 28.3779 9.80459
1 7.56327 27.6233 9.78864
1 9.0874 28.4126 10.6291
1 9.8811 27.6189 10.6291
1 9.91645 28.4242 9.82656
1 9.13138 27.6033 9.83015
1 10.6748 28.4126 10.6291
1 11.4685 27.6189 10.6291
1 11.4765 28.4046 9.85908
1 10.6838 27.608 9.82204
1 12.2622 28.4126 10.6291
1 13.0559 27.6189 10.6291
1 13.0626 28.3671 9.82133
1 12.2791 27.6124 9.83442
1 13.8496 28.4126 10.6291
1 14.6433 27.6189 10.6291
1 14.6488 28.4121 9.84385
1 13.8511 27.6014 9.85671
1 15.437 28.4126 10.6291
1 16.2307 27.6189 10.6291
1 16.2364 28.3843 9.82993
1 15.4504 27.6129 9.82781
1 17.0244 28.4126 10.6291
1 17.8181 27.6189 10.6291
1 17.824 28.3807 9.8236
1 17.0383 27.6054 9.84511
1 18.6118 28.4126 10.6291
1 19.4055 27.6189 10.6291
1 19.4134 28.3765 9.86305
1 18.6092 27.6195 9.82789
1 20.1992 28.4126 10.6291
1 20.9929 27.6189 10.6291
1 20.9742 28.3908 9.85302
1 20.1924 27.6128 9.83901
1 21.7866 28.4126 10.6291
1 22.5803 27.6189 10.6291
1 22.5506 28.3998 9.8498
1 21.7537 27.6045 9.82743
1 23.374 28.4126 10.6291
1 24.1677 27.6189 10.6291
1 24.149 28.4026 9.83461
1 23.3816 27.608 9.83928
1 24.9614 28.4126 10.6291
1 25.7551 27.6189 10.6291
1 25.7604 28.3802 9.83066
1 24.9534 27.6146 9.83454
1 26.5488 28.4126 10.6291
1 27.3425 27.6189 10.6291
1 27.3135 28.3605 9.85162
1 26.5617 27.5895 9.81818
1 28.1362 28.4126 10.6291
1 28.9299 27.6189 10.6291
1 28.9522 28.3958 9.81976
1 28.1339 27.6206 9.82949
1 29.7236 28.4126 10.6291
1 0.517315 27.6189 10.6291
1 0.504448 28.3974 9.8373
1 29.7351 27.5954 9.84798
1 1.31102 28.4126 10.6291
1 2.10472 27.6189 10.6291
1 2.08596 28.4162 9.86172
1 1.29901 27.6157 9.82694
1 2.89842 28.4126 10.6291
1 3.69212 27.6189 10.6291
1 3.66201 28.392 9.82082
1 2.87644 27.6403 9.84038
1 4.48582 28.4126 10.6291
1 5.27952 27.6189 10.6291
1 5.26055 28.3942 9.82832
1 4.47785 27.6337 9.84182
1 6.07322 28.4126 10.6291
1 6.86692 27.6189 10.6291
1 6.79074 28.3816 9.79133
1 6.02375 27.6324 9.82369
1 7.5 26.8252 10.6291
1 8.2937 26.0315 10.6291
1 8.33053 26.8264 9.81861
1 7.57731 26.0277 9.79069
1 9.0874 26.8252 10.6291
1 9.8811 26.0315 10.6291
1 9.91545 26.8094 9.84002
1 9.10568 26.031 9.82516
1 10.6748 26.8252 10.6291
1 11.4685 26.0315 10.6291
1 11.4724 26.8105 9.8502
1 10.6868 26.0159 9.83857
1 12.2622 26.8252 10.6291
1 13.0559 26.0315 10.6291
1 13.045 26.849 9.85587
1 12.2672 26.0368 9.84146
1 13.8496 26.8252 10.6291
1 14.6433 26.0315 10.6291
1 14.6353 26.8364 9.84872
1 13.8454 26.053 9.82109
1 15.437 26.8252 10.6291
1 16.2307 26.0315 10.6291
1 16.2287 26.8162 9.84851
1 15.424 26.0379 9.85573
1 17.0244 26.8252 10.6291
1 17.8181 26.0315 10.6291
1 17.8384 26.8071 9.85235
1 17.0421 26.0517 9.86855
1 18.6118 26.8252 10.6291
1 19.4055 26.0315 10.6291
1 19.4043 26.8004 9.8554
1 18.5942 26.0252 9.84425
1 20.1992 26.8252 10.6291
1 20.9929 26.0315 10.6291
1 20.9836 26.8046 9.8284
1 20.2017 26.044 9.83679
1 21.7866 26.8252 10.6291
1 22.5803 26.0315 10.6291
1 22.5618 26.8296 9.84043
1 21.8092 26.0309 9.83195
1 23.374 26.8252 10.6291
1 24.1677 26.0315 10.6291
1 24.1381 26.7993 9.83478
1 23.3776 26.0423 9.81378
1 24.9614 26.8252 10.6291
1 25.7551 26.0315 10.6291
1 25.7461 26.8452 9.82288
1 24.9688 26.0284 9.84863
1 26.5488 26.8252 10.6291
1 27.3425 26.0315 10.6291
1 27.3375 26.8168 9.81606
1 26.55 26.0211 9.81867
1 28.1362 26.8252 10.6291
1 28.9299 26.0315 10.6291
1 28.9211 26.8231 9.83859
1 28.1476 26.0347 9.83399
1 29.7236 26.8252 10.6291
1 0.517315 26.0315 10.6291
1 0.503011 26.8171 9.82275
1 29.7019 26.0263 9.81265
1 1.31102 26.8252 10.6291
1 2.10472 26.0315 10.6291
1 2.08249 26.7914 9.83856
1 1.32582 26.0233 9.86351
1 2.89842 26.8252 10.6291
1 3.69212 26.0315 10.6291
1 3.70115 26.8243 9.83323
1 2.92151 26.0215 9.81842
1 4.48582 26.8252 10.6291
1 5.27952 26.0315 10.6291
1 5.2324 26.8173 9.8273
1 4.46048 26.0086 9.82747
1 6.07322 26.8252 10.6291
1 6.86692 26.0315 10.6291
1 6.78816 26.8268 9.82062
1 6.02959 26.0372 9.82493
1 7.5 25.2378 10.6291
1 8.2937 24.4441 10.6291
1 8.35049 25.2216 9.81156
1 7.57107 24.4489 9.8038
1 9.0874 25.2378 10.6291
1 9.8811 24.4441 10.6291
1 9.88177 25.2413 9.84003
1 9.10322 24.4677 9.81743
1 10.6748 25.2378 10.6291
1 11.4685 24.4441 10.6291
1 11.4723 25.2551 9.82731
1 10.687 24.4458 9.82888
1 12.2622 25.2378 10.6291
1 13.0559 24.4441 10.6291
1 13.0781 25.2516 9.86151
1 12.2542 24.452 9.83656
1 13.8496 25.2378 10.6291
1 14.6433 24.4441 10.6291
1 14.6339 25.2511 9.83604
1 13.8557 24.4632 9.82703
1 15.437 25.2378 10.6291
1 16.2307 24.4441 10.6291
1 16.2226 25.2414 9.82581
1 15.4452 24.4406 9.84889
1 17.0244 25.2378 10.6291
1 17.8181 24.4441 10.6291
1 17.8504 25.253 9.83693
1 17.0321 24.4398 9.83975
1 18.6118 25.2378 10.6291
1 19.4055 24.4441 10.6291
1 19.4107 25.21 9.8561
1 18.6007 24.4462 9.84794
1 20.1992 25.2378 10.6291
1 20.9929 24.4441 10.6291
1 20.972 25.2105 9.82082
1 20.2129 24.4293 9.85383
1 21.7866 25.2378 10.6291
1 22.5803 24.4441 10.6291
1 22.5771 25.2494 9.84127
1 21.7877 24.4625 9.8301
1 23.374 25.2378 10.6291
1 24.1677 24.4441 10.6291
1 24.1794 25.2169 9.82085
1 23.3723 24.4581 9.84492
1 24.9614 25.2378 10.6291
1 25.7551 24.4441 10.6291
1 25.7573 25.2277 9.86301
1 24.9368 24.4481 9.84972
1 26.5488 25.2378 10.6291
1 27.3425 24.4441 10.6291
1 27.3338 25.2366 9.80687
1 26.5564 24.4431 9.83804
1 28.1362 25.2378 10.6291
1 28.9299 24.4441 10.6291
1 28.9378 25.2079 9.84759
1 28.1178 24.4623 9.81846
1 29.7236 25.2378 10.6291
1 0.517315 24.4441 10.6291
1 0.516439 25.222 9.82613
1 29.7384 24.4364 9.82186
1 1.31102 25.2378 10.6291
1 2.10472 24.4441 10.6291
1 2.12808 25.2448 9.8501
1 1.31428 24.4498 9.83419
1 2.89842 25.2378 10.6291
1 3.69212 24.4441 10.6291
1 3.71761 25.215 9.82526
1 2.88792 24.4208 9.85633
1 4.48582 25.2378 10.6291
1 5.27952 24.4441 10.6291
1 5.26889 25.2333 9.84753
1 4.47065 24.4603 9.84063
1 6.07322 25.2378 10.6291
1 6.86692 24.4441 10.6291
1 6.78656 25.2497 9.78377
1 6.06866 24.4266 9.81632
1 7.5 23.6504 10.6291
1 8.2937 22.8567 10.6291
1 8.33238 23.6588 9.82957
1 7.55674 22.8845 9.81314
1 9.0874 23.6504 10.6291
1 9.8811 22.8567 10.6291
1 9.8704 23.6736 9.81819
1 9.11371 22.8577 9.82973
1 10.6748 23.6504 10.6291
1 11.4685 22.8567 10.6291
1 11.467 23.6438 9.83832
1 10.6791 22.8625 9.84561
1 12.2622 23.6504 10.6291
1 13.0559 22.8567 10.6291
1 13.0519 23.6252 9.84851
1 12.2753 22.8731 9.83083
1 13.8496 23.6504 10.6291
1 14.6433 22.8567 10.6291
1 14.6403 23.6503 9.83732
1 13.8522 22.8622 9.8162
1 15.437 23.6504 10.6291
1 16.2307 22.8567 10.6291
1 16.2406 23.6427 9.83773
1 15.4476 22.8501 9.8301
1 17.0244 23.6504 10.6291
1 17.8181 22.8567 10.6291
1 17.8126 23.6294 9.82637
1 17.0432 22.8593 9.85664
1 18.6118 23.6504 10.6291
1 19.4055 22.8567 10.6291
1 19.4192 23.6411 9.82596
1 18.6187 22.8722 9.86074
1 20.1992 23.6504 10.6291
1 20.9929 22.8567 10.6291
1 21.0076 23.618 9.85488
1 20.2135 22.8396 9.81586
1 21.7866 23.6504 10.6291
1 22.5803 22.8567 10.6291
1 22.5619 23.6599 9.85339
1 21.7803 22.8426 9.8454
1 23.374 23.6504 10.6291
1 24.1677 22.8567 10.6291
1 24.1573 23.6464 9.84692
1 23.3775 22.8715 9.82909
1 24.9614 23.6504 10.6291
1 25.7551 22.8567 10.6291
1 25.7565 23.6352 9.84637
1 24.9553 22.874 9.83713
1 26.5488 23.6504 10.6291
1 27.3425 22.8567 10.6291
1 27.3476 23.6551 9.84779
1 26.5707 22.8703 9.82525
1 28.1362 23.6504 10.6291
1 28.9299 22.8567 10.6291
1 28.9022 23.6533 9.86006
1 28.1117 22.8662 9.84157
1 29.7236 23.6504 10.6291
1 0.517315 22.8567 10.6291
1 0.521227 23.6097 9.86396
1 29.7104 22.8957 9.83435
1 1.31102 23.6504 10.6291
1 2.10472 22.8567 10.6291
1 2.10911 23.6429 9.85187
1 1.31807 22.8448 9.85505
1 2.89842 23.6504 10.6291
1 3.69212 22.8567 10.6291
1 3.68646 23.6312 9.84359
1 2.87798 22.8423 9.84201
1 4.48582 23.6504 10.6291
1 5.27952 22.8567 10.6291
1 5.26636 23.6475 9.83284
1 4.46617 22.838 9.82531
1 6.07322 23.6504 10.6291
1 6.86692 22.8567 10.6291
1 6.81949 23.6793 9.78629
1 6.07649 22.875 9.82813
1 7.5 22.063 10.6291
1 8.2937 21.2693 10.6291
1 8.33133 22.0915 9.85864
1 7.54915 21.2525 9.81152
1 9.0874 22.063 10.6291
1 9.8811 21.2693 10.6291
1 9.89325 22.0537 9.83412
1 9.0768 21.2638 9.81301
1 10.6748 22.063 10.6291
1 11.4685 21.2693 10.6291
1 11.4657 22.0626 9.84473
1 10.6819 21.2674 9.81776
1 12.2622 22.063 10.6291
1 13.0559 21.2693 10.6291
1 13.0605 22.0616 9.84392
1 12.2921 21.2906 9.85143
1 13.8496 22.063 10.6291
1 14.6433 21.2693 10.6291
1 14.6364 22.0463 9.82811
1 13.8345 21.2633 9.83448
1 15.437 22.063 10.6291
1 16.2307 21.2693 10.6291
1 16.2458 22.079 9.83609
1 15.4566 21.2409 9.81792
1 17.0244 22.063 10.6291
1 17.8181 21.2693 10.6291
1 17.8225 22.0692 9.85569
1 17.046 21.2679 9.82909
1 18.6118 22.063 10.6291
1 19.4055 21.2693 10.6291
1 19.4113 22.0496 9.82758
1 18.6021 21.2736 9.83797
1 20.1992 22.063 10.6291
1 20.9929 21.2693 10.6291
1 20.9993 22.098 9.82848
1 20.2095 21.2751 9.83934
1 21.7866 22.063 10.6291
1 22.5803 21.2693 10.6291
1 22.5694 22.0604 9.8569
1 21.7659 21.2984 9.84039
1 23.374 22.063 10.6291
1 24.1677 21.2693 10.6291
1 24.169 22.055 9.80394
1 23.3704 21.2663 9.83644
1 24.9614 22.063 10.6291
1 25.7551 21.2693 10.6291
1 25.7507 22.0476 9.8237
1 24.9347 21.2778 9.81311
1 26.5488 22.063 10.6291
1 27.3425 21.2693 10.6291
1 27.329 22.0555 9.81431
1 26.5613 21.2722 9.86571
1 28.1362 22.063 10.6291
1 28.9299 21.2693 10.6291
1 28.9341 22.066 9.82356
1 28.1215 21.2675 9.82116
1 29.7236 22.063 10.6291
1 0.517315 21.2693 10.6291
1 0.498607 22.09 9.84451
1 29.7254 21.2559 9.853
1 1.31102 22.063 10.6291
1 2.10472 21.2693 10.6291
1 2.07258 22.0502 9.84074
1 1.30785 21.2778 9.82011
1 2.89842 22.063 10.6291
1 3.69212 21.2693 10.6291
1 3.66834 22.0901 9.83166
1 2.87933 21.3003 9.83116
1 4.48582 22.063 10.6291
1 5.27952 21.2693 10.6291
1 5.29517 22.0621 9.83004
1 4.47388 21.2876 9.82992
1 6.07322 22.063 10.6291
1 6.86692 21.2693 10.6291
1 6.80458 22.0285 9.80936
1 6.03832 21.2505 9.81364
1 7.5 20.4756 10.6291
1 8.2937 19.6819 10.6291
1 8.32924 20.4695 9.81712
1 7.5767 19.7003 9.78988
1 9.0874 20.4756 10.6291
1 9.8811 19.6819 10.6291
1 9.86406 20.4828 9.8348
1 9.10136 19.7025 9.81957
1 10.6748 20.4756 10.6291
1 11.4685 19.6819 10.6291
1 11.5013 20.4931 9.84218
1 10.6998 19.7071 9.83513
1 12.2622 20.4756 10.6291
1 13.0559 19.6819 10.6291
1 13.0586 20.4908 9.86159
1 12.2606 19.6959 9.85833
1 13.8496 20.4756 10.6291
1 14.6433 19.6819 10.6291
1 14.6305 20.4735 9.83774
1 13.8388 19.691 9.82329
1 15.437 20.4756 10.6291
1 16.2307 19.6819 10.6291
1 16.246 20.4755 9.82942
1 15.4469 19.6838 9.84787
1 17.0244 20.4756 10.6291
1 17.8181 19.6819 10.6291
1 17.8574 20.4764 9.84052
1 17.036 19.6799 9.81839
1 18.6118 20.4756 10.6291
1 19.4055 19.6819 10.6291
1 19.4166 20.4755 9.82434
1 18.6244 19.6961 9.82644
1 20.1992 20.4756 10.6291
1 20.9929 19.6819 10.6291
1 21.0058 20.4538 9.83757
1 20.2061 19.6804 9.82902
1 21.7866 20.4756 10.6291
1 22.5803 19.6819 10.6291
1 22.5715 20.4734 9.83896
1 21.7934 19.6573 9.81599
1 23.374 20.4756 10.6291
1 24.1677 19.6819 10.6291
1 24.1736 20.4808 9.85022
1 23.366 19.6994 9.86396
1 24.9614 20.4756 10.6291
1 25.7551 19.6819 10.6291
1 25.7478 20.4765 9.84367
1 24.9886 19.6742 9.83543
1 26.5488 20.4756 10.6291
1 27.3425 19.6819 10.6291
1 27.3308 20.4561 9.8503
1 26.5119 19.6862 9.82373
1 28.1362 20.4756 10.6291
1 28.9299 19.6819 10.6291
1 28.9145 20.4548 9.82195
1 28.1483 19.6726 9.84962
1 29.7236 20.4756 10.6291
1 0.517315 19.6819 10.6291
1 0.512371 20.4747 9.84204
1 29.731 19.6693 9.84855
1 1.31102 20.4756 10.6291
1 2.10472 19.6819 10.6291
1 2.12024 20.4973 9.83107
1 1.34132 19.7017 9.86136
1 2.89842 20.4756 10.6291
1 3.69212 19.6819 10.6291
1 3.67148 20.4846 9.84756
1 2.90395 19.6735 9.84677
1 4.48582 20.4756 10.6291
1 5.27952 19.6819 10.6291
1 5.2599 20.4865 9.85205
1 4.47513 19.671 9.81578
1 6.07322 20.4756 10.6291
1 6.86692 19.6819 10.6291
1 6.76817 20.4635 9.81539
1 6.02519 19.6914 9.82987
1 7.5 18.8882 10.6291
1 8.2937 18.0945 10.6291
1 8.33947 18.8949 9.81713
1 7.58506 18.1379 9.79326
1 9.0874 18.8882 10.6291
1 9.8811 18.0945 10.6291
1 9.8948 18.8899 9.84112
1 9.11032 18.1047 9.84014
1 10.6748 18.8882 10.6291
1 11.4685 18.0945 10.6291
1 11.4773 18.8904 9.85733
1 10.6981 18.0974 9.86138
1 12.2622 18.8882 10.6291
1 13.0559 18.0945 10.6291
1 13.0587 18.8927 9.8412
1 12.2617 18.0966 9.86014
1 13.8496 18.8882 10.6291
1 14.6433 18.0945 10.6291
1 14.6509 18.8916 9.82355
1 13.8399 18.0941 9.82797
1 15.437 18.8882 10.6291
1 16.2307 18.0945 10.6291
1 16.2433 18.8702 9.84626
1 15.441 18.0987 9.86752
1 17.0244 18.8882 10.6291
1 17.8181 18.0945 10.6291
1 17.7925 18.8904 9.83691
1 17.0228 18.0794 9.8322
1 18.6118 18.8882 10.6291
1 19.4055 18.0945 10.6291
1 19.3904 18.8834 9.83337
1 18.6263 18.0842 9.82933
1 20.1992 18.8882 10.6291
1 20.9929 18.0945 10.6291
1 20.9793 18.8815 9.8277
1 20.2212 18.104 9.82864
1 21.7866 18.8882 10.6291
1 22.5803 18.0945 10.6291
1 22.5674 18.895 9.84857
1 21.7888 18.0895 9.80759
1 23.374 18.8882 10.6291
1 24.1677 18.0945 10.6291
1 24.1768 18.8939 9.82489
1 23.3671 18.103 9.8316
1 24.9614 18.8882 10.6291
1 25.7551 18.0945 10.6291
1 25.7524 18.8789 9.84178
1 24.9697 18.1026 9.80785
1 26.5488 18.8882 10.6291
1 27.3425 18.0945 10.6291
1 27.3271 18.8859 9.84664
1 26.5356 18.0965 9.83683
1 28.1362 18.8882 10.6291
1 28.9299 18.0945 10.6291
1 28.9269 18.88 9.84443
1 28.1337 18.0917 9.85937
1 29.7236 18.8882 10.6291
1 0.517315 18.0945 10.6291
1 0.544774 18.8935 9.8298
1 29.7218 18.0909 9.80495
1 1.31102 18.8882 10.6291
1 2.10472 18.0945 10.6291
1 2.11635 18.8777 9.86706
1 1.31651 18.0855 9.82651
1 2.89842 18.8882 10.6291
1 3.69212 18.0945 10.6291
1 3.68762 18.9035 9.83657
1 2.89232 18.0754 9.84057
1 4.48582 18.8882 10.6291
1 5.27952 18.0945 10.6291
1 5.2857 18.8733 9.81902
1 4.48122 18.1101 9.83994
1 6.07322 18.8882 10.6291
1 6.86692 18.0945 10.6291
1 6.79132 18.9103 9.81172
1 6.06855 18.0955 9.8279
1 7.5 17.3008 10.6291
1 8.2937 16.5071 10.6291
1 8.3373 17.2927 9.82128
1 7.60729 16.5137 9.80054
1 9.0874 17.3008 10.6291
1 9.8811 16.5071 10.6291
1 9.87596 17.3082 9.83476
1 9.07996 16.5191 9.8258
1 10.6748 17.3008 10.6291
1 11.4685 16.5071 10.6291
1 11.4298 17.283 9.8432
1 10.6735 16.4761 9.83795
1 12.2622 17.3008 10.6291
1 13.0559 16.5071 10.6291
1 13.069 17.2594 9.84149
1 12.2421 16.5 9.84202
1 13.8496 17.3008 10.6291
1 14.6433 16.5071 10.6291
1 14.658 17.3042 9.86397
1 13.8611 16.4962 9.84594
1 15.437 17.3008 10.6291
1 16.2307 16.5071 10.6291
1 16.2201 17.3 9.85609
1 15.4582 16.5065 9.86134
1 17.0244 17.3008 10.6291
1 17.8181 16.5071 10.6291
1 17.7868 17.2881 9.87022
1 17.0225 16.5037 9.83952
1 18.6118 17.3008 10.6291
1 19.4055 16.5071 10.6291
1 19.4209 17.3044 9.83113
1 18.6174 16.5021 9.83924
1 20.1992 17.3008 10.6291
1 20.9929 16.5071 10.6291
1 20.9668 17.2869 9.83433
1 20.2079 16.4835 9.8194
1 21.7866 17.3008 10.6291
1 22.5803 16.5071 10.6291
1 22.589 17.3191 9.83486
1 21.7817 16.522 9.84662
1 23.374 17.3008 10.6291
1 24.1677 16.5071 10.6291
1 24.1845 17.2988 9.83806
1 23.3896 16.5153 9.85113
1 24.9614 17.3008 10.6291
1 25.7551 16.5071 10.6291
1 25.7685 17.3103 9.84327
1 24.9569 16.5145 9.82291
1 26.5488 17.3008 10.6291
1 27.3425 16.5071 10.6291
1 27.3367 17.3065 9.85364
1 26.5495 16.4934 9.83107
1 28.1362 17.3008 10.6291
1 28.9299 16.5071 10.6291
1 28.9088 17.3293 9.8383
1 28.1391 16.518 9.84921
1 29.7236 17.3008 10.6291
1 0.517315 16.5071 10.6291
1 0.503901 17.287 9.82698
1 29.7158 16.501 9.81983
1 1.31102 17.3008 10.6291
1 2.10472 16.5071 10.6291
1 2.0919 17.2953 9.84472
1 1.29585 16.4813 9.82039
1 2.89842 17.3008 10.6291
1 3.69212 16.5071 10.6291
1 3.71729 17.3071 9.84533
1 2.91028 16.5289 9.85386
1 4.48582 17.3008 10.6291
1 5.27952 16.5071 10.6291
1 5.27704 17.3083 9.85221
1 4.46608 16.5196 9.84799
1 6.07322 17.3008 10.6291
1 6.86692 16.5071 10.6291
1 6.79926 17.3075 9.82463
1 6.03659 16.5028 9.82734
1 7.5 15.7134 10.6291
1 8.2937 14.9197 10.6291
1 8.31414 15.6987 9.81236
1 7.57925 14.9305 9.79835
1 9.0874 15.7134 10.6291
1 9.8811 14.9197 10.6291
1 9.88348 15.701 9.84085
1 9.07954 14.9058 9.83683
1 10.6748 15.7134 10.6291
1 11.4685 14.9197 10.6291
1 11.4787 15.7077 9.84809
1 10.6832 14.899 9.82062
1 12.2622 15.7134 10.6291
1 13.0559 14.9197 10.6291
1 13.0592 15.7173 9.83671
1 12.2677 14.9256 9.85704
1 13.8496 15.7134 10.6291
1 14.6433 14.9197 10.6291
1 14.6535 15.7115 9.86096
1 13.8605 14.9092 9.85876
1 15.437 15.7134 10.6291
1 16.2307 14.9197 10.6291
1 16.2375 15.6959 9.85776
1 15.4335 14.923 9.84633
1 17.0244 15.7134 10.6291
1 17.8181 14.9197 10.6291
1 17.8341 15.7091 9.80159
1 17.0544 14.9378 9.86159
1 18.6118 15.7134 10.6291
1 19.4055 14.9197 10.6291
1 19.3865 15.6949 9.84563
1 18.6092 14.9378 9.83683
1 20.1992 15.7134 10.6291
1 20.9929 14.9197 10.6291
1 20.9859 15.7221 9.82546
1 20.1784 14.913 9.8354
1 21.7866 15.7134 10.6291
1 22.5803 14.9197 10.6291
1 22.5674 15.7189 9.87718
1 21.7843 14.9207 9.86996
1 23.374 15.7134 10.6291
1 24.1677 14.9197 10.6291
1 24.1759 15.7226 9.82779
1 23.3657 14.9345 9.83953
1 24.9614 15.7134 10.6291
1 25.7551 14.9197 10.6291
1 25.7402 15.731 9.82798
1 24.9354 14.9132 9.8339
1 26.5488 15.7134 10.6291
1 27.3425 14.9197 10.6291
1 27.3345 15.7004 9.84178
1 26.5368 14.8881 9.86116
1 28.1362 15.7134 10.6291
1 28.9299 14.9197 10.6291
1 28.9361 15.7173 9.84244
1 28.1398 14.9213 9.85944
1 29.7236 15.7134 10.6291
1 0.517315 14.9197 10.6291
1 0.50787 15.7336 9.85403
1 29.7308 14.9257 9.84264
1 1.31102 15.7134 10.6291
1 2.10472 14.9197 10.6291
1 2.10205 15.6943 9.85061
1 1.28046 14.8861 9.85295
1 2.89842 15.7134 10.6291
1 3.69212 14.9197 10.6291
1 3.68365 15.7234 9.84312
1 2.89914 14.9165 9.85002
1 4.48582 15.7134 10.6291
1 5.27952 14.9197 10.6291
1 5.29953 15.7166 9.83599
1 4.48458 14.9532 9.83813
1 6.07322 15.7134 10.6291
1 6.86692 14.9197 10.6291
1 6.82474 15.7001 9.78648
1 6.03101 14.9204 9.84811
1 7.5 14.126 10.6291
1 8.2937 13.3323 10.6291
1 8.3113 14.1448 9.83001
1 7.57624 13.3442 9.82519
1 9.0874 14.126 10.6291
1 9.8811 13.3323 10.6291
1 9.8962 14.1367 9.83926
1 9.08739 13.3581 9.82265
1 10.6748 14.126 10.6291
1 11.4685 13.3323 10.6291
1 11.4631 14.1276 9.81773
1 10.6889 13.3453 9.79821
1 12.2622 14.126 10.6291
1 13.0559 13.3323 10.6291
1 13.0473 14.1422 9.84599
1 12.2446 13.3359 9.8235
1 13.8496 14.126 10.6291
1 14.6433 13.3323 10.6291
1 14.6477 14.1019 9.84104
1 13.8507 13.3144 9.85961
1 15.437 14.126 10.6291
1 16.2307 13.3323 10.6291
1 16.2427 14.1345 9.84601
1 15.4402 13.3192 9.81608
1 17.0244 14.126 10.6291
1 17.8181 13.3323 10.6291
1 17.8304 14.1363 9.83071
1 17.0291 13.3295 9.81635
1 18.6118 14.126 10.6291
1 19.4055 13.3323 10.6291
1 19.4359 14.1268 9.83999
1 18.6171 13.335 9.8262
1 20.1992 14.126 10.6291
1 20.9929 13.3323 10.6291
1 20.9837 14.1184 9.83272
1 20.1943 13.34 9.84224
1 21.7866 14.126 10.6291
1 22.5803 13.3323 10.6291
1 22.5718 14.1442 9.81948
1 21.766 13.3376 9.81682
1 23.374 14.126 10.6291
1 24.1677 13.3323 10.6291
1 24.173 14.0953 9.82914
1 23.355 13.356 9.84692
1 24.9614 14.126 10.6291
1 25.7551 13.3323 10.6291
1 25.7452 14.1154 9.83965
1 24.985 13.3162 9.86171
1 26.5488 14.126 10.6291
1 27.3425 13.3323 10.6291
1 27.3362 14.1179 9.82029
1 26.5232 13.3399 9.8138
1 28.1362 14.126 10.6291
1 28.9299 13.3323 10.6291
1 28.933 14.1285 9.82248
1 28.1159 13.3475 9.81074
1 29.7236 14.126 10.6291
1 0.517315 13.3323 10.6291
1 0.522717 14.1133 9.83318
1 29.7199 13.3422 9.82665
1 1.31102 14.126 10.6291
1 2.10472 13.3323 10.6291
1 2.13152 14.143 9.83785
1 1.32305 13.3661 9.85729
1 2.89842 14.126 10.6291
1 3.69212 13.3323 10.6291
1 3.68178 14.147 9.806
1 2.9059 13.3343 9.83241
1 4.48582 14.126 10.6291
1 5.27952 13.3323 10.6291
1 5.27259 14.1371 9.84074
1 4.47982 13.356 9.8271
1 6.07322 14.126 10.6291
1 6.86692 13.3323 10.6291
1 6.79461 14.1406 9.81073
1 6.05753 13.3425 9.84899
1 7.5 12.5386 10.6291
1 8.2937 11.7449 10.6291
1 8.33017 12.5524 9.81427
1 7.54348 11.7408 9.82403
1 9.0874 12.5386 10.6291
1 9.8811 11.7449 10.6291
1 9.90584 12.5526 9.83154
1 9.09698 11.7804 9.82875
1 10.6748 12.5386 10.6291
1 11.4685 11.7449 10.6291
1 11.4808 12.5451 9.82757
1 10.6809 11.7605 9.82618
1 12.2622 12.5386 10.6291
1 13.0559 11.7449 10.6291
1 13.053 12.526 9.85938
1 12.2686 11.7379 9.8515
1 13.8496 12.5386 10.6291
1 14.6433 11.7449 10.6291
1 14.6573 12.5391 9.8109
1 13.8429 11.7559 9.85386
1 15.437 12.5386 10.6291
1 16.2307 11.7449 10.6291
1 16.2301 12.5384 9.8326
1 15.4642 11.7415 9.83717
1 17.0244 12.5386 10.6291
1 17.8181 11.7449 10.6291
1 17.8123 12.5662 9.8416
1 17.0454 11.7422 9.84788
1 18.6118 12.5386 10.6291
1 19.4055 11.7449 10.6291
1 19.4074 12.5341 9.82245
1 18.6093 11.7404 9.83082
1 20.1992 12.5386 10.6291
1 20.9929 11.7449 10.6291
1 21.0146 12.5522 9.84224
1 20.2152 11.7437 9.86036
1 21.7866 12.5386 10.6291
1 22.5803 11.7449 10.6291
1 22.5566 12.5489 9.84745
1 21.8061 11.7409 9.83877
1 23.374 12.5386 10.6291
1 24.1677 11.7449 10.6291
1 24.1757 12.5435 9.84737
1 23.3455 11.7424 9.84305
1 24.9614 12.5386 10.6291
1 25.7551 11.7449 10.6291
1 25.7411 12.5541 9.83706
1 24.9466 11.7346 9.82926
1 26.5488 12.5386 10.6291
1 27.3425 11.7449 10.6291
1 27.3265 12.5313 9.83113
1 26.5253 11.7342 9.83097
1 28.1362 12.5386 10.6291
1 28.9299 11.7449 10.6291
1 28.9324 12.5194 9.84111
1 28.1315 11.7477 9.83647
1 29.7236 12.5386 10.6291
1 0.517315 11.7449 10.6291
1 0.536308 12.5456 9.83981
1 29.6903 11.7386 9.82749
1 1.31102 12.5386 10.6291
1 2.10472 11.7449 10.6291
1 2.09067 12.5612 9.83644
1 1.29982 11.7368 9.84232
1 2.89842 12.5386 10.6291
1 3.69212 11.7449 10.6291
1 3.68368 12.5572 9.84469
1 2.88474 11.7324 9.84527
1 4.48582 12.5386 10.6291
1 5.27952 11.7449 10.6291
1 5.263 12.5431 9.83104
1 4.46042 11.7416 9.85481
1 6.07322 12.5386 10.6291
1 6.86692 11.7449 10.6291
1 6.78916 12.5418 9.77912
1 6.04636 11.7462 9.83883
1 7.5 10.9512 10.6291
1 8.2937 10.1575 10.6291
1 8.34834 10.9532 9.84332
1 7.56919 10.1428 9.7999
1 9.0874 10.9512 10.6291
1 9.8811 10.1575 10.6291
1 9.90553 10.9384 9.836
1 9.13852 10.1428 9.8091
1 10.6748 10.9512 10.6291
1 11.4685 10.1575 10.6291
1 11.4603 10.9689 9.84631
1 10.6977 10.1685 9.82394
1 12.2622 10.9512 10.6291
1 13.0559 10.1575 10.6291
1 13.0731 10.9306 9.84692
1 12.265 10.1527 9.83969
1 13.8496 10.9512 10.6291
1 14.6433 10.1575 10.6291
1 14.6494 10.9423 9.81273
1 13.8526 10.1389 9.82336
1 15.437 10.9512 10.6291
1 16.2307 10.1575 10.6291
1 16.2434 10.9535 9.80988
1 15.4209 10.1582 9.85105
1 17.0244 10.9512 10.6291
1 17.8181 10.1575 10.6291
1 17.8467 10.9341 9.84949
1 17.0113 10.1594 9.82735
1 18.6118 10.9512 10.6291
1 19.4055 10.1575 10.6291
1 19.419 10.95 9.84471
1 18.6297 10.1412 9.83821
1 20.1992 10.9512 10.6291
1 20.9929 10.1575 10.6291
1 20.9859 10.9417 9.84144
1 20.2086 10.1571 9.81591
1 21.7866 10.9512 10.6291
1 22.5803 10.1575 10.6291
1 22.5858 10.9561 9.81663
1 21.7826 10.148 9.82095
1 23.374 10.9512 10.6291
1 24.1677 10.1575 10.6291
1 24.145 10.9179 9.84211
1 23.3444 10.1437 9.81124
1 24.9614 10.9512 10.6291
1 25.7551 10.1575 10.6291
1 25.7474 10.927 9.83691
1 24.9652 10.1423 9.84306
1 26.5488 10.9512 10.6291
1 27.3425 10.1575 10.6291
1 27.3345 10.9422 9.83354
1 26.5605 10.1515 9.8232
1 28.1362 10.9512 10.6291
1 28.9299 10.1575 10.6291
1 28.9448 10.9652 9.85964
1 28.1372 10.169 9.85907
1 29.7236 10.9512 10.6291
1 0.517315 10.1575 10.6291
1 0.505153 10.9387 9.84617
1 29.7268 10.1735 9.84615
1 1.31102 10.9512 10.6291
1 2.10472 10.1575 10.6291
1 2.09934 10.9453 9.83486
1 1.32014 10.1502 9.84813
1 2.89842 10.9512 10.6291
1 3.69212 10.1575 10.6291
1 3.67478 10.9358 9.82696
1 2.90273 10.201 9.81138
1 4.48582 10.9512 10.6291
1 5.27952 10.1575 10.6291
1 5.2527 10.9603 9.83579
1 4.46861 10.1605 9.80666
1 6.07322 10.9512 10.6291
1 6.86692 10.1575 10.6291
1 6.79397 10.9296 9.81252
1 6.03996 10.1518 9.82666
1 7.5 9.36379 10.6291
1 8.2937 8.57009 10.6291
1 8.31593 9.36731 9.84438
1 7.55294 8.58422 9.82636
1 9.0874 9.36379 10.6291
1 9.8811 8.57009 10.6291
1 9.90202 9.33049 9.8213
1 9.08677 8.58925 9.84715
1 10.6748 9.36379 10.6291
1 11.4685 8.57009 10.6291
1 11.4916 9.35872 9.84321
1 10.6935 8.55476 9.85004
1 12.2622 9.36379 10.6291
1 13.0559 8.57009 10.6291
1 13.0574 9.35882 9.82702
1 12.2594 8.56923 9.83227
1 13.8496 9.36379 10.6291
1 14.6433 8.57009 10.6291
1 14.6358 9.3681 9.85269
1 13.8447 8.58564 9.8252
1 15.437 9.36379 10.6291
1 16.2307 8.57009 10.6291
1 16.222 9.37888 9.83017
1 15.4287 8.57854 9.83419
1 17.0244 9.36379 10.6291
1 17.8181 8.57009 10.6291
1 17.8028 9.38041 9.86281
1 17.0262 8.55911 9.83376
1 18.6118 9.36379 10.6291
1 19.4055 8.57009 10.6291
1 19.3995 9.38543 9.83573
1 18.5815 8.53864 9.82438
1 20.1992 9.36379 10.6291
1 20.9929 8.57009 10.6291
1 20.9967 9.35247 9.82245
1 20.2127 8.54679 9.85128
1 21.7866 9.36379 10.6291
1 22.5803 8.57009 10.6291
1 22.5662 9.35193 9.80502
1 21.7888 8.59327 9.83198
1 23.374 9.36379 10.6291
1 24.1677 8.57009 10.6291
1 24.1661 9.35415 9.85593
1 23.3767 8.54675 9.83028
1 24.9614 9.36379 10.6291
1 25.7551 8.57009 10.6291
1 25.7566 9.36506 9.85495
1 24.9649 8.56319 9.85421
1 26.5488 9.36379 10.6291
1 27.3425 8.57009 10.6291
1 27.3551 9.35215 9.84633
1 26.5378 8.57156 9.85357
1 28.1362 9.36379 10.6291
1 28.9299 8.57009 10.6291
1 28.9379 9.35795 9.85016
1 28.1623 8.55218 9.84017
1 29.7236 9.36379 10.6291
1 0.517315 8.57009 10.6291
1 0.514397 9.37421 9.82273
1 29.7037 8.55858 9.82942
1 1.31102 9.36379 10.6291
1 2.10472 8.57009 10.6291
1 2.12786 9.38172 9.82867
1 1.32197 8.56422 9.81455
1 2.89842 9.36379 10.6291
1 3.69212 8.57009 10.6291
1 3.68918 9.35589 9.86134
1 2.88639 8.58266 9.82405
1 4.48582 9.36379 10.6291
1 5.27952 8.57009 10.6291
1 5.25007 9.37029 9.82652
1 4.46619 8.56726 9.83393
1 6.07322 9.36379 10.6291
1 6.86692 8.57009 10.6291
1 6.82065 9.36164 9.79921
1 6.02967 8.58202 9.8203
1 7.5 7.77639 10.6291
1 8.2937 6.98268 10.6291
1 8.3302 7.78721 9.82954
1 7.54021 7.0017 9.80127
1 9.0874 7.77639 10.6291
1 9.8811 6.98268 10.6291
1 9.87978 7.78712 9.83102
1 9.11389 6.99282 9.82232
1 10.6748 7.77639 10.6291
1 11.4685 6.98268 10.6291
1 11.4769 7.73174 9.83317
1 10.6894 6.99899 9.82209
1 12.2622 7.77639 10.6291
1 13.0559 6.98268 10.6291
1 13.0755 7.77566 9.84562
1 12.2845 6.99022 9.86789
1 13.8496 7.77639 10.6291
1 14.6433 6.98268 10.6291
1 14.649 7.79539 9.80889
1 13.8467 6.99482 9.83134
1 15.437 7.77639 10.6291
1 16.2307 6.98268 10.6291
1 16.2212 7.79306 9.83272
1 15.4363 6.9839 9.8488
1 17.0244 7.77639 10.6291
1 17.8181 6.98268 10.6291
1 17.7851 7.77147 9.84401
1 16.9958 6.95437 9.84848
1 18.6118 7.77639 10.6291
1 19.4055 6.98268 10.6291
1 19.4092 7.78547 9.82747
1 18.6093 6.98165 9.83435
1 20.1992 7.77639 10.6291
1 20.9929 6.98268 10.6291
1 21.0115 7.79897 9.83657
1 20.2056 6.98754 9.83656
1 21.7866 7.77639 10.6291
1 22.5803 6.98268 10.6291
1 22.5746 7.76919 9.83244
1 21.7759 6.97831 9.84208
1 23.374 7.77639 10.6291
1 24.1677 6.98268 10.6291
1 24.1885 7.78299 9.84029
1 23.3955 6.97389 9.82855
1 24.9614 7.77639 10.6291
1 25.7551 6.98268 10.6291
1 25.7484 7.77711 9.85573
1 24.9516 6.97921 9.8388
1 26.5488 7.77639 10.6291
1 27.3425 6.98268 10.6291
1 27.3289 7.78551 9.7997
1 26.5686 6.97401 9.84032
1 28.1362 7.77639 10.6291
1 28.9299 6.98268 10.6291
1 28.9366 7.76596 9.8364
1 28.1431 7.00141 9.82979
1 29.7236 7.77639 10.6291
1 0.517315 6.98268 10.6291
1 0.498854 7.80578 9.82686
1 29.7505 6.99149 9.8317
1 1.31102 7.77639 10.6291
1 2.10472 6.98268 10.6291
1 2.12305 7.78275 9.84697
1 1.3038 6.99152 9.83549
1 2.89842 7.77639 10.6291
1 3.69212 6.98268 10.6291
1 3.66614 7.77029 9.83367
1 2.88327 6.98022 9.85436
1 4.48582 7.77639 10.6291
1 5.27952 6.98268 10.6291
1 5.26211 7.77855 9.82595
1 4.45872 7.01145 9.8209
1 6.07322 7.77639 10.6291
1 6.86692 6.98268 10.6291
1 6.81351 7.78827 9.81282
1 6.02964 6.99105 9.82746
1 7.5 6.18898 10.6291
1 8.2937 5.39528 10.6291
1 8.31708 6.20424 9.84359
1 7.56959 5.40525 9.79452
1 9.0874 6.18898 10.6291
1 9.8811 5.39528 10.6291
1 9.87422 6.19959 9.82856
1 9.09728 5.39542 9.80968
1 10.6748 6.18898 10.6291
1 11.4685 5.39528 10.6291
1 11.4788 6.21802 9.85938
1 10.7049 5.40854 9.82494
1 12.2622 6.18898 10.6291
1 13.0559 5.39528 10.6291
1 13.0583 6.17971 9.86138
1 12.2651 5.3904 9.82623
1 13.8496 6.18898 10.6291
1 14.6433 5.39528 10.6291
1 14.6782 6.17614 9.84301
1 13.8423 5.40242 9.84557
1 15.437 6.18898 10.6291
1 16.2307 5.39528 10.6291