9376
Atoms. Timestep: 4000000
1 30 3.55271e-15 11.9491
1 0.793701 29.2063 11.9491
1 0.825839 29.9116 11.0912
1 0.0394567 29.167 11.1353
1 1.5874 3.55271e-15 11.9491
1 2.3811 29.2063 11.9491
1 2.40171 29.9522 11.1323
1 1.59981 29.1961 11.1362
1 3.1748 3.55271e-15 11.9491
1 3.9685 29.2063 11.9491
1 3.9978 29.9493 11.1384
1 3.1842 29.219 11.1616
1 4.7622 3.55271e-15 11.9491
1 5.5559 29.2063 11.9491
1 5.57677 29.9212 11.1354
1 4.77974 29.1719 11.1731
1 6.3496 3.55271e-15 11.9491
1 7.1433 29.2063 11.9491
1 7.13985 29.9288 11.1179
1 6.36223 29.1838 11.168
1 7.93701 3.55271e-15 11.9491
1 8.73071 29.2063 11.9491
1 8.72949 29.9486 11.1206
1 7.95634 29.1794 11.1519
1 9.52441 3.55271e-15 11.9491
1 10.3181 29.2063 11.9491
1 10.3158 29.9333 11.1374
1 9.52069 29.1615 11.1682
1 11.1118 3.55271e-15 11.9491
1 11.9055 29.2063 11.9491
1 11.9052 29.9204 11.1136
1 11.1084 29.1624 11.1514
1 12.6992 3.55271e-15 11.9491
1 13.4929 29.2063 11.9491
1 13.5049 29.9205 11.1217
1 12.704 29.2112 11.1427
1 14.2866 3.55271e-15 11.9491
1 15.0803 29.2063 11.9491
1 15.0699 29.9677 11.1179
1 14.2912 29.1991 11.1294
1 15.874 3.55271e-15 11.9491
1 16.6677 29.2063 11.9491
1 16.6654 29.9126 11.1398
1 15.8628 29.2075 11.1555
1 17.4614 3.55271e-15 11.9491
1 18.2551 29.2063 11.9491
1 18.2867 29.9125 11.1209
1 17.4618 29.1579 11.1474
1 19.0488 3.55271e-15 11.9491
1 19.8425 29.2063 11.9491
1 19.84 29.9029 11.1114
1 19.0484 29.1598 11.1515
1 20.6362 3.55271e-15 11.9491
1 21.4299 29.2063 11.9491
1 21.4164 29.928 11.108
1 20.6556 29.1454 11.1651
1 22.2236 3.55271e-15 11.9491
1 23.0173 29.2063 11.9491
1 23.0223 29.9235 11.1071
1 22.2073 29.1638 11.1622
1 23.811 3.55271e-15 11.9491
1 24.6047 29.2063 11.9491
1 24.6117 29.9442 11.1595
1 23.8296 29.1811 11.1402
1 25.3984 3.55271e-15 11.9491
1 26.1921 29.2063 11.9491
1 26.1884 29.9161 11.1359
1 25.4118 29.1657 11.1698
1 26.9858 3.55271e-15 11.9491
1 27.7795 29.2063 11.9491
1 27.7517 29.9221 11.1347
1 26.9779 29.1639 11.1277
1 28.5732 3.55271e-15 11.9491
1 29.3669 29.2063 11.9491
1 29.2707 29.9395 11.0762
1 28.5278 29.1827 11.1569
1 30 28.4126 11.9491
1 0.793701 27.6189 11.9491
1 0.823872 28.4004 11.144
1 0.0651232 27.6228 11.1311
1 1.5874 28.4126 11.9491
1 2.3811 27.6189 11.9491
1 2.38233 28.4179 11.1462
1 1.61345 27.6102 11.1616
1 3.1748 28.4126 11.9491
1 3.9685 27.6189 11.9491
1 3.98149 28.4108 11.1756
1 3.17655 27.6181 11.1522
1 4.7622 28.4126 11.9491
1 5.5559 27.6189 11.9491
1 5.57989 28.3847 11.1679
1 4.74961 27.6262 11.1608
1 6.3496 28.4126 11.9491
1 7.1433 27.6189 11.9491
1 7.14085 28.3817 11.1669
1 6.37414 27.5906 11.1655
1 7.93701 28.4126 11.9491
1 8.73071 27.6189 11.9491
1 8.71767 28.3976 11.1443
1 7.92898 27.611 11.1251
1 9.52441 28.4126 11.9491
1 10.3181 27.6189 11.9491
1 10.3023 28.3812 11.1466
1 9.50521 27.5884 11.1513
1 11.1118 28.4126 11.9491
1 11.9055 27.6189 11.9491
1 11.9135 28.4129 11.1567
1 11.1122 27.6006 11.1511
1 12.6992 28.4126 11.9491
1 13.4929 27.6189 11.9491
1 13.5066 28.3909 11.142
1 12.7076 27.6052 11.1447
1 14.2866 28.4126 11.9491
1 15.0803 27.6189 11.9491
1 15.0577 28.4001 11.1785
1 14.2862 27.5808 11.1554
1 15.874 28.4126 11.9491
1 16.6677 27.6189 11.9491
1 16.659 28.4183 11.1624
1 15.8786 27.6059 11.1598
1 17.4614 28.4126 11.9491
1 18.2551 27.6189 11.9491
1 18.2505 28.3831 11.1625
1 17.4507 27.6007 11.1415
1 19.0488 28.4126 11.9491
1 19.8425 27.6189 11.9491
1 19.84 28.3975 11.1576
1 19.053 27.6148 11.1606
1 20.6362 28.4126 11.9491
1 21.4299 27.6189 11.9491
1 21.4277 28.3835 11.1371
1 20.6278 27.5919 11.158
1 22.2236 28.4126 11.9491
1 23.0173 27.6189 11.9491
1 22.9735 28.4 11.1308
1 22.2108 27.5748 11.1489
1 23.811 28.4126 11.9491
1 24.6047 27.6189 11.9491
1 24.5996 28.4079 11.1821
1 23.7943 27.5978 11.1517
1 25.3984 28.4126 11.9491
1 26.1921 27.6189 11.9491
1 26.2028 28.3943 11.1731
1 25.4002 27.6201 11.1796
1 26.9858 28.4126 11.9491
1 27.7795 27.6189 11.9491
1 27.7698 28.3964 11.1669
1 26.9897 27.5897 11.1589
1 28.5732 28.4126 11.9491
1 29.3669 27.6189 11.9491
1 29.3161 28.3945 11.1327
1 28.5621 27.6178 11.1571
1 30 26.8252 11.9491
1 0.793701 26.0315 11.9491
1 0.815812 26.8003 11.167
1 0.0798822 26.0214 11.1514
1 1.5874 26.8252 11.9491
1 2.3811 26.0315 11.9491
1 2.41102 26.8255 11.1642
1 1.60424 26.0382 11.1574
1 3.1748 26.8252 11.9491
1 3.9685 26.0315 11.9491
1 3.97138 26.8445 11.1709
1 3.18132 26.0367 11.1556
1 4.7622 26.8252 11.9491
1 5.5559 26.0315 11.9491
1 5.55261 26.8429 11.1532
1 4.77499 26.0579 11.1456
1 6.3496 26.8252 11.9491
1 7.1433 26.0315 11.9491
1 7.14727 26.8039 11.1515
1 6.33602 26.028 11.1406
1 7.93701 26.8252 11.9491
1 8.73071 26.0315 11.9491
1 8.71382 26.815 11.13
1 7.95018 26.0402 11.1483
1 9.52441 26.8252 11.9491
1 10.3181 26.0315 11.9491
1 10.3267 26.8323 11.1564
1 9.52332 26.0533 11.1695
1 11.1118 26.8252 11.9491
1 11.9055 26.0315 11.9491
1 11.9022 26.8191 11.1912
1 11.0826 26.0199 11.1739
1 12.6992 26.8252 11.9491
1 13.4929 26.0315 11.9491
1 13.4968 26.8199 11.1689
1 12.695 26.026 11.1704
1 14.2866 26.8252 11.9491
1 15.0803 26.0315 11.9491
1 15.0829 26.8186 11.1876
1 14.2606 26.0024 11.1463
1 15.874 26.8252 11.9491
1 16.6677 26.0315 11.9491
1 16.6708 26.7973 11.1725
1 15.8516 26.0268 11.1594
1 17.4614 26.8252 11.9491
1 18.2551 26.0315 11.9491
1 18.2636 26.8183 11.1113
1 17.4597 26.0231 11.1532
1 19.0488 26.8252 11.9491
1 19.8425 26.0315 11.9491
1 19.8571 26.8104 11.1806
1 19.0189 25.9971 11.1682
1 20.6362 26.8252 11.9491
1 21.4299 26.0315 11.9491
1 21.4177 26.8027 11.1471
1 20.6582 25.987 11.1471
1 22.2236 26.8252 11.9491
1 23.0173 26.0315 11.9491
1 23.0106 26.8072 11.1525
1 22.2147 26.025 11.1736
1 23.811 26.8252 11.9491
1 24.6047 26.0315 11.9491
1 24.606 26.8135 11.1619
1 23.8182 26.0232 11.177
1 25.3984 26.8252 11.9491
1 26.1921 26.0315 11.9491
1 26.1841 26.8234 11.1667
1 25.3834 26.0267 11.1405
1 26.9858 26.8252 11.9491
1 27.7795 26.0315 11.9491
1 27.7677 26.8148 11.1629
1 26.9728 26.0335 11.1469
1 28.5732 26.8252 11.9491
1 29.3669 26.0315 11.9491
1 29.3181 26.7997 11.117
1 28.5592 26.0245 11.1503
1 30 25.2378 11.9491
1 0.793701 24.4441 11.9491
1 0.824348 25.2179 11.1528
1 0.0623271 24.4382 11.1323
1 1.5874 25.2378 11.9491
1 2.3811 24.4441 11.9491
1 2.38512 25.2266 11.1591
1 1.63212 24.4125 11.1842
1 3.1748 25.2378 11.9491
1 3.9685 24.4441 11.9491
1 3.9679 25.2478 11.1718
1 3.20018 24.4286 11.1495
1 4.7622 25.2378 11.9491
1 5.5559 24.4441 11.9491
1 5.52373 25.2289 11.1614
1 4.76309 24.4411 11.146
1 6.3496 25.2378 11.9491
1 7.1433 24.4441 11.9491
1 7.13621 25.2587 11.1745
1 6.32462 24.4368 11.1679
1 7.93701 25.2378 11.9491
1 8.73071 24.4441 11.9491
1 8.75725 25.2465 11.139
1 7.94641 24.4632 11.1474
1 9.52441 25.2378 11.9491
1 10.3181 24.4441 11.9491
1 10.3001 25.2246 11.145
1 9.53878 24.4544 11.1408
1 11.1118 25.2378 11.9491
1 11.9055 24.4441 11.9491
1 11.904 25.2382 11.1896
1 11.1103 24.4408 11.1657
1 12.6992 25.2378 11.9491
1 13.4929 24.4441 11.9491
1 13.4908 25.2271 11.1666
1 12.6813 24.4207 11.1701
1 14.2866 25.2378 11.9491
1 15.0803 24.4441 11.9491
1 15.0753 25.2569 11.1629
1 14.2983 24.4409 11.1384
1 15.874 25.2378 11.9491
1 16.6677 24.4441 11.9491
1 16.6711 25.2361 11.1637
1 15.8666 24.433 11.1316
1 17.4614 25.2378 11.9491
1 18.2551 24.4441 11.9491
1 18.2506 25.2149 11.149
1 17.4732 24.4484 11.1661
1 19.0488 25.2378 11.9491
1 19.8425 24.4441 11.9491
1 19.8252 25.2212 11.1493
1 19.0431 24.42 11.1554
1 20.6362 25.2378 11.9491
1 21.4299 24.4441 11.9491
1 21.439 25.2168 11.1489
1 20.6493 24.4222 11.1499
1 22.2236 25.2378 11.9491
1 23.0173 24.4441 11.9491
1 23.0011 25.2367 11.158
1 22.2493 24.4496 11.1694
1 23.811 25.2378 11.9491
1 24.6047 24.4441 11.9491
1 24.6165 25.2141 11.1719
1 23.8313 24.436 11.1509
1 25.3984 25.2378 11.9491
1 26.1921 24.4441 11.9491
1 26.1931 25.2263 11.1638
1 25.3836 24.4089 11.1562
1 26.9858 25.2378 11.9491
1 27.7795 24.4441 11.9491
1 27.78 25.2276 11.18
1 26.9794 24.4054 11.145
1 28.5732 25.2378 11.9491
1 29.3669 24.4441 11.9491
1 29.3165 25.2468 11.1198
1 28.5522 24.4498 11.1702
1 30 23.6504 11.9491
1 0.793701 22.8567 11.9491
1 0.848692 23.6317 11.1658
1 0.0595728 22.8492 11.1352
1 1.5874 23.6504 11.9491
1 2.3811 22.8567 11.9491
1 2.40505 23.6534 11.1709
1 1.60246 22.8388 11.1481
1 3.1748 23.6504 11.9491
1 3.9685 22.8567 11.9491
1 3.99297 23.6429 11.1673
1 3.19199 22.8552 11.1514
1 4.7622 23.6504 11.9491
1 5.5559 22.8567 11.9491
1 5.54406 23.6389 11.1633
1 4.77576 22.8468 11.1822
1 6.3496 23.6504 11.9491
1 7.1433 22.8567 11.9491
1 7.11569 23.6652 11.1301
1 6.33044 22.8746 11.1815
1 7.93701 23.6504 11.9491
1 8.73071 22.8567 11.9491
1 8.74865 23.6715 11.1447
1 7.92998 22.8524 11.1761
1 9.52441 23.6504 11.9491
1 10.3181 22.8567 11.9491
1 10.3186 23.6444 11.1573
1 9.51919 22.8441 11.1678
1 11.1118 23.6504 11.9491
1 11.9055 22.8567 11.9491
1 11.8999 23.6316 11.158
1 11.1207 22.8407 11.1514
1 12.6992 23.6504 11.9491
1 13.4929 22.8567 11.9491
1 13.4881 23.6518 11.1624
1 12.6968 22.8424 11.1669
1 14.2866 23.6504 11.9491
1 15.0803 22.8567 11.9491
1 15.0613 23.637 11.1451
1 14.2802 22.8815 11.1469
1 15.874 23.6504 11.9491
1 16.6677 22.8567 11.9491
1 16.6604 23.6504 11.1469
1 15.9032 22.8557 11.1468
1 17.4614 23.6504 11.9491
1 18.2551 22.8567 11.9491
1 18.233 23.6637 11.1459
1 17.4722 22.85 11.18
1 19.0488 23.6504 11.9491
1 19.8425 22.8567 11.9491
1 19.8457 23.6535 11.1467
1 19.0466 22.8589 11.1589
1 20.6362 23.6504 11.9491
1 21.4299 22.8567 11.9491
1 21.4414 23.6527 11.1776
1 20.6296 22.846 11.1582
1 22.2236 23.6504 11.9491
1 23.0173 22.8567 11.9491
1 23.007 23.6309 11.1425
1 22.2402 22.8615 11.1645
1 23.811 23.6504 11.9491
1 24.6047 22.8567 11.9491
1 24.5826 23.6313 11.1449
1 23.8007 22.8496 11.1645
1 25.3984 23.6504 11.9491
1 26.1921 22.8567 11.9491
1 26.2066 23.6559 11.1523
1 25.3894 22.8451 11.1687
1 26.9858 23.6504 11.9491
1 27.7795 22.8567 11.9491
1 27.762 23.6335 11.1635
1 26.979 22.8546 11.1512
1 28.5732 23.6504 11.9491
1 29.3669 22.8567 11.9491
1 29.3107 23.6729 11.1208
1 28.5533 22.8234 11.1662
1 30 22.063 11.9491
1 0.793701 21.2693 11.9491
1 0.839933 22.05 11.1605
1 0.0674554 21.2603 11.1154
1 1.5874 22.063 11.9491
1 2.3811 21.2693 11.9491
1 2.3937 22.063 11.1677
1 1.60152 21.2684 11.1642
1 3.1748 22.063 11.9491
1 3.9685 21.2693 11.9491
1 3.95675 22.0618 11.1561
1 3.19964 21.2884 11.1501
1 4.7622 22.063 11.9491
1 5.5559 21.2693 11.9491
1 5.5685 22.075 11.1634
1 4.76136 21.291 11.1547
1 6.3496 22.063 11.9491
1 7.1433 21.2693 11.9491
1 7.15392 22.0559 11.1683
1 6.32566 21.2697 11.1499
1 7.93701 22.063 11.9491
1 8.73071 21.2693 11.9491
1 8.71515 22.0553 11.1518
1 7.94264 21.2558 11.1579
1 9.52441 22.063 11.9491
1 10.3181 21.2693 11.9491
1 10.3159 22.0554 11.1443
1 9.52362 21.2414 11.1548
1 11.1118 22.063 11.9491
1 11.9055 21.2693 11.9491
1 11.8984 22.0459 11.1602
1 11.0811 21.2438 11.1406
1 12.6992 22.063 11.9491
1 13.4929 21.2693 11.9491
1 13.4819 22.0507 11.1714
1 12.6942 21.2608 11.1603
1 14.2866 22.063 11.9491
1 15.0803 21.2693 11.9491
1 15.1027 22.0516 11.1361
1 14.3065 21.255 11.131
1 15.874 22.063 11.9491
1 16.6677 21.2693 11.9491
1 16.6677 22.0546 11.1672
1 15.8693 21.2665 11.1729
1 17.4614 22.063 11.9491
1 18.2551 21.2693 11.9491
1 18.2746 22.0425 11.1621
1 17.4555 21.2715 11.1624
1 19.0488 22.063 11.9491
1 19.8425 21.2693 11.9491
1 19.8499 22.0637 11.1428
1 19.0321 21.2752 11.1463
1 20.6362 22.063 11.9491
1 21.4299 21.2693 11.9491
1 21.4432 22.0745 11.1614
1 20.6257 21.2457 11.1956
1 22.2236 22.063 11.9491
1 23.0173 21.2693 11.9491
1 23.0221 22.0556 11.1719
1 22.2207 21.2525 11.1939
1 23.811 22.063 11.9491
1 24.6047 21.2693 11.9491
1 24.6011 22.0906 11.1625
1 23.7944 21.2549 11.1668
1 25.3984 22.063 11.9491
1 26.1921 21.2693 11.9491
1 26.1944 22.075 11.1505
1 25.4191 21.283 11.1663
1 26.9858 22.063 11.9491
1 27.7795 21.2693 11.9491
1 27.7598 22.0761 11.1461
1 26.9795 21.2751 11.1408
1 28.5732 22.063 11.9491
1 29.3669 21.2693 11.9491
1 29.2847 22.0432 11.1198
1 28.5395 21.2746 11.145
1 30 20.4756 11.9491
1 0.793701 19.6819 11.9491
1 0.851935 20.4784 11.1551
1 0.0740739 19.699 11.1333
1 1.5874 20.4756 11.9491
1 2.3811 19.6819 11.9491
1 2.39275 20.4815 11.1497
1 1.58827 19.6874 11.1424
1 3.1748 20.4756 11.9491
1 3.9685 19.6819 11.9491
1 3.99539 20.4864 11.1617
1 3.19588 19.6962 11.1487
1 4.7622 20.4756 11.9491
1 5.5559 19.6819 11.9491
1 5.53623 20.476 11.1527
1 4.75978 19.69 11.1439
1 6.3496 20.4756 11.9491
1 7.1433 19.6819 11.9491
1 7.16343 20.4634 11.1595
1 6.37096 19.652 11.1555
1 7.93701 20.4756 11.9491
1 8.73071 19.6819 11.9491
1 8.7409 20.4695 11.1629
1 7.94829 19.6716 11.1475
1 9.52441 20.4756 11.9491
1 10.3181 19.6819 11.9491
1 10.335 20.4794 11.1563
1 9.54571 19.6837 11.1369
1 11.1118 20.4756 11.9491
1 11.9055 19.6819 11.9491
1 11.9025 20.4831 11.1484
1 11.1518 19.6575 11.1659
1 12.6992 20.4756 11.9491
1 13.4929 19.6819 11.9491
1 13.5078 20.4954 11.1509
1 12.7146 19.6977 11.1527
1 14.2866 20.4756 11.9491
1 15.0803 19.6819 11.9491
1 15.0616 20.4692 11.1523
1 14.2824 19.6783 11.1382
1 15.874 20.4756 11.9491
1 16.6677 19.6819 11.9491
1 16.6781 20.4993 11.1518
1 15.8895 19.6912 11.1561
1 17.4614 20.4756 11.9491
1 18.2551 19.6819 11.9491
1 18.2729 20.4938 11.1472
1 17.4552 19.679 11.1626
1 19.0488 20.4756 11.9491
1 19.8425 19.6819 11.9491
1 19.8415 20.4604 11.1595
1 19.0564 19.6941 11.1373
1 20.6362 20.4756 11.9491
1 21.4299 19.6819 11.9491
1 21.4123 20.4604 11.1621
1 20.6275 19.6856 11.1589
1 22.2236 20.4756 11.9491
1 23.0173 19.6819 11.9491
1 23.0276 20.4793 11.1543
1 22.2131 19.6863 11.1679
1 23.811 20.4756 11.9491
1 24.6047 19.6819 11.9491
1 24.6247 20.4657 11.1576
1 23.8237 19.6892 11.152
1 25.3984 20.4756 11.9491
1 26.1921 19.6819 11.9491
1 26.1988 20.4946 11.157
1 25.4056 19.6879 11.1721
1 26.9858 20.4756 11.9491
1 27.7795 19.6819 11.9491
1 27.7613 20.5134 11.172
1 26.9563 19.7043 11.1546
1 28.5732 20.4756 11.9491
1 29.3669 19.6819 11.9491
1 29.3046 20.4734 11.1292
1 28.5121 19.6882 11.1716
1 30 18.8882 11.9491
1 0.793701 18.0945 11.9491
1 0.830979 18.8832 11.1836
1 0.0477652 18.1151 11.1272
1 1.5874 18.8882 11.9491
1 2.3811 18.0945 11.9491
1 2.39081 18.8773 11.1562
1 1.61129 18.072 11.1837
1 3.1748 18.8882 11.9491
1 3.9685 18.0945 11.9491
1 3.98555 18.884 11.1582
1 3.17737 18.1109 11.1444
1 4.7622 18.8882 11.9491
1 5.5559 18.0945 11.9491
1 5.55005 18.8738 11.1476
1 4.76373 18.1046 11.144
1 6.3496 18.8882 11.9491
1 7.1433 18.0945 11.9491
1 7.16923 18.8782 11.1594
1 6.36325 18.1149 11.159
1 7.93701 18.8882 11.9491
1 8.73071 18.0945 11.9491
1 8.70774 18.8725 11.1477
1 7.94469 18.0852 11.1628
1 9.52441 18.8882 11.9491
1 10.3181 18.0945 11.9491
1 10.3316 18.9118 11.143
1 9.53139 18.1173 11.1716
1 11.1118 18.8882 11.9491
1 11.9055 18.0945 11.9491
1 11.9025 18.8777 11.1504
1 11.1113 18.1009 11.1492
1 12.6992 18.8882 11.9491
1 13.4929 18.0945 11.9491
1 13.5047 18.8967 11.1391
1 12.6966 18.0956 11.1603
1 14.2866 18.8882 11.9491
1 15.0803 18.0945 11.9491
1 15.0826 18.9015 11.1457
1 14.329 18.102 11.1733
1 15.874 18.8882 11.9491
1 16.6677 18.0945 11.9491
1 16.6538 18.891 11.157
1 15.8681 18.0873 11.1431
1 17.4614 18.8882 11.9491
1 18.2551 18.0945 11.9491
1 18.256 18.915 11.1473
1 17.4666 18.0842 11.1591
1 19.0488 18.8882 11.9491
1 19.8425 18.0945 11.9491
1 19.833 18.9062 11.1482
1 19.0312 18.1213 11.1585
1 20.6362 18.8882 11.9491
1 21.4299 18.0945 11.9491
1 21.4283 18.8954 11.1553
1 20.6195 18.1125 11.1532
1 22.2236 18.8882 11.9491
1 23.0173 18.0945 11.9491
1 23.0265 18.8966 11.1688
1 22.2286 18.0696 11.1614
1 23.811 18.8882 11.9491
1 24.6047 18.0945 11.9491
1 24.6003 18.8935 11.1681
1 23.8087 18.0988 11.1554
1 25.3984 18.8882 11.9491
1 26.1921 18.0945 11.9491
1 26.1889 18.8807 11.1576
1 25.4151 18.082 11.1884
1 26.9858 18.8882 11.9491
1 27.7795 18.0945 11.9491
1 27.7422 18.8952 11.1624
1 26.9664 18.0816 11.1513
1 28.5732 18.8882 11.9491
1 29.3669 18.0945 11.9491
1 29.2842 18.9117 11.1092
1 28.5444 18.0988 11.1494
1 30 17.3008 11.9491
1 0.793701 16.5071 11.9491
1 0.848223 17.2655 11.1666
1 0.0623166 16.5105 11.1407
1 1.5874 17.3008 11.9491
1 2.3811 16.5071 11.9491
1 2.38371 17.2728 11.1666
1 1.5826 16.4926 11.1541
1 3.1748 17.3008 11.9491
1 3.9685 16.5071 11.9491
1 3.96079 17.3303 11.1798
1 3.16124 16.5046 11.1648
1 4.7622 17.3008 11.9491
1 5.5559 16.5071 11.9491
1 5.57543 17.3144 11.1537
1 4.78833 16.4791 11.1457
1 6.3496 17.3008 11.9491
1 7.1433 16.5071 11.9491
1 7.11929 17.3246 11.1507
1 6.34492 16.4962 11.1552
1 7.93701 17.3008 11.9491
1 8.73071 16.5071 11.9491
1 8.71558 17.3438 11.1894
1 7.92479 16.5254 11.1588
1 9.52441 17.3008 11.9491
1 10.3181 16.5071 11.9491
1 10.3111 17.3059 11.1431
1 9.48183 16.4982 11.1644
1 11.1118 17.3008 11.9491
1 11.9055 16.5071 11.9491
1 11.8702 17.3336 11.1692
1 11.1115 16.5055 11.1544
1 12.6992 17.3008 11.9491
1 13.4929 16.5071 11.9491
1 13.5015 17.3181 11.1759
1 12.704 16.5437 11.167
1 14.2866 17.3008 11.9491
1 15.0803 16.5071 11.9491
1 15.0804 17.3111 11.1306
1 14.2956 16.5138 11.1514
1 15.874 17.3008 11.9491
1 16.6677 16.5071 11.9491
1 16.632 17.3041 11.1289
1 15.8874 16.5232 11.1472
1 17.4614 17.3008 11.9491
1 18.2551 16.5071 11.9491
1 18.268 17.3217 11.1419
1 17.4379 16.4979 11.1787
1 19.0488 17.3008 11.9491
1 19.8425 16.5071 11.9491
1 19.8239 17.2998 11.1572
1 19.0359 16.4723 11.1387
1 20.6362 17.3008 11.9491
1 21.4299 16.5071 11.9491
1 21.4028 17.2993 11.1719
1 20.6433 16.4885 11.1429
1 22.2236 17.3008 11.9491
1 23.0173 16.5071 11.9491
1 23.0172 17.2758 11.1547
1 22.2201 16.4863 11.1277
1 23.811 17.3008 11.9491
1 24.6047 16.5071 11.9491
1 24.613 17.2968 11.166
1 23.8415 16.497 11.159
1 25.3984 17.3008 11.9491
1 26.1921 16.5071 11.9491
1 26.1912 17.3111 11.1399
1 25.3888 16.4911 11.1708
1 26.9858 17.3008 11.9491
1 27.7795 16.5071 11.9491
1 27.7706 17.2946 11.1625
1 26.9593 16.4915 11.1581
1 28.5732 17.3008 11.9491
1 29.3669 16.5071 11.9491
1 29.3126 17.2791 11.1143
1 28.545 16.5038 11.1485
1 30 15.7134 11.9491
1 0.793701 14.9197 11.9491
1 0.825864 15.6911 11.1592
1 0.0757214 14.8973 11.1371
1 1.5874 15.7134 11.9491
1 2.3811 14.9197 11.9491
1 2.39812 15.7071 11.1278
1 1.6091 14.9149 11.1372
1 3.1748 15.7134 11.9491
1 3.9685 14.9197 11.9491
1 3.96705 15.7377 11.1449
1 3.1874 14.9201 11.1622
1 4.7622 15.7134 11.9491
1 5.5559 14.9197 11.9491
1 5.56566 15.733 11.1529
1 4.7727 14.9681 11.1737
1 6.3496 15.7134 11.9491
1 7.1433 14.9197 11.9491
1 7.15022 15.6995 11.1683
1 6.36471 14.9236 11.1739
1 7.93701 15.7134 11.9491
1 8.73071 14.9197 11.9491
1 8.72824 15.7135 11.1447
1 7.9456 14.9153 11.1428
1 9.52441 15.7134 11.9491
1 10.3181 14.9197 11.9491
1 10.3224 15.7221 11.1363
1 9.51153 14.9147 11.1394
1 11.1118 15.7134 11.9491
1 11.9055 14.9197 11.9491
1 11.9189 15.7298 11.1369
1 11.1309 14.9085 11.1619
1 12.6992 15.7134 11.9491
1 13.4929 14.9197 11.9491
1 13.4914 15.6992 11.1598
1 12.6758 14.9289 11.1614
1 14.2866 15.7134 11.9491
1 15.0803 14.9197 11.9491
1 15.0951 15.7377 11.1504
1 14.2888 14.9283 11.1725
1 15.874 15.7134 11.9491
1 16.6677 14.9197 11.9491
1 16.6608 15.7259 11.1674
1 15.8574 14.9146 11.1649
1 17.4614 15.7134 11.9491
1 18.2551 14.9197 11.9491
1 18.2749 15.7024 11.1568
1 17.4583 14.9445 11.1534
1 19.0488 15.7134 11.9491
1 19.8425 14.9197 11.9491
1 19.8544 15.6888 11.1355
1 19.0859 14.9002 11.1438
1 20.6362 15.7134 11.9491
1 21.4299 14.9197 11.9491
1 21.4517 15.6818 11.1305
1 20.6252 14.9078 11.1601
1 22.2236 15.7134 11.9491
1 23.0173 14.9197 11.9491
1 23.0095 15.7174 11.1321
1 22.203 14.9014 11.1396
1 23.811 15.7134 11.9491
1 24.6047 14.9197 11.9491
1 24.5776 15.7109 11.1627
1 23.781 14.9416 11.1656
1 25.3984 15.7134 11.9491
1 26.1921 14.9197 11.9491
1 26.1872 15.7185 11.1969
1 25.3858 14.9122 11.1706
1 26.9858 15.7134 11.9491
1 27.7795 14.9197 11.9491
1 27.7486 15.7129 11.1489
1 26.983 14.91 11.153
1 28.5732 15.7134 11.9491
1 29.3669 14.9197 11.9491
1 29.2968 15.6913 11.151
1 28.534 14.9053 11.1537
1 30 14.126 11.9491
1 0.793701 13.3323 11.9491
1 0.823031 14.1122 11.1687
1 0.0826348 13.303 11.1058
1 1.5874 14.126 11.9491
1 2.3811 13.3323 11.9491
1 2.39815 14.1136 11.1445
1 1.56941 13.33 11.1216
1 3.1748 14.126 11.9491
1 3.9685 13.3323 11.9491
1 3.96386 14.1262 11.1503
1 3.18647 13.3369 11.1572
1 4.7622 14.126 11.9491
1 5.5559 13.3323 11.9491
1 5.56766 14.1347 11.1383
1 4.79631 13.3347 11.1629
1 6.3496 14.126 11.9491
1 7.1433 13.3323 11.9491
1 7.14671 14.103 11.1319
1 6.37188 13.3574 11.166
1 7.93701 14.126 11.9491
1 8.73071 13.3323 11.9491
1 8.70512 14.1098 11.1497
1 7.93462 13.348 11.1536
1 9.52441 14.126 11.9491
1 10.3181 13.3323 11.9491
1 10.3546 14.1343 11.1539
1 9.50419 13.3416 11.15
1 11.1118 14.126 11.9491
1 11.9055 13.3323 11.9491
1 11.9182 14.1395 11.1604
1 11.1029 13.3329 11.1345
1 12.6992 14.126 11.9491
1 13.4929 13.3323 11.9491
1 13.4841 14.1245 11.1777
1 12.6934 13.33 11.1448
1 14.2866 14.126 11.9491
1 15.0803 13.3323 11.9491
1 15.0899 14.126 11.1454
1 14.3012 13.3636 11.1184
1 15.874 14.126 11.9491
1 16.6677 13.3323 11.9491
1 16.6527 14.1608 11.1294
1 15.8674 13.3274 11.158
1 17.4614 14.126 11.9491
1 18.2551 13.3323 11.9491
1 18.2558 14.1249 11.1589
1 17.4568 13.3357 11.1782
1 19.0488 14.126 11.9491
1 19.8425 13.3323 11.9491
1 19.847 14.0923 11.162
1 19.0526 13.3313 11.154
1 20.6362 14.126 11.9491
1 21.4299 13.3323 11.9491
1 21.4246 14.1327 11.1718
1 20.6583 13.3428 11.1496
1 22.2236 14.126 11.9491
1 23.0173 13.3323 11.9491
1 23.0038 14.1445 11.164
1 22.1895 13.3207 11.142
1 23.811 14.126 11.9491
1 24.6047 13.3323 11.9491
1 24.5979 14.1217 11.1662
1 23.82 13.3438 11.1743
1 25.3984 14.126 11.9491
1 26.1921 13.3323 11.9491
1 26.1849 14.1243 11.1557
1 25.3787 13.3312 11.1769
1 26.9858 14.126 11.9491
1 27.7795 13.3323 11.9491
1 27.784 14.1044 11.1663
1 26.9764 13.3443 11.1634
1 28.5732 14.126 11.9491
1 29.3669 13.3323 11.9491
1 29.3088 14.1053 11.126
1 28.5535 13.3221 11.1317
1 30 12.5386 11.9491
1 0.793701 11.7449 11.9491
1 0.819456 12.4966 11.1521
1 0.0401827 11.7505 11.1182
1 1.5874 12.5386 11.9491
1 2.3811 11.7449 11.9491
1 2.40162 12.5511 11.1612
1 1.64797 11.7626 11.1718
1 3.1748 12.5386 11.9491
1 3.9685 11.7449 11.9491
1 3.97094 12.5331 11.1663
1 3.16855 11.7313 11.1796
1 4.7622 12.5386 11.9491
1 5.5559 11.7449 11.9491
1 5.55537 12.5429 11.1602
1 4.76923 11.7381 11.156
1 6.3496 12.5386 11.9491
1 7.1433 11.7449 11.9491
1 7.1297 12.5353 11.1369
1 6.34895 11.7415 11.1684
1 7.93701 12.5386 11.9491
1 8.73071 11.7449 11.9491
1 8.70751 12.5451 11.1374
1 7.95294 11.7457 11.1499
1 9.52441 12.5386 11.9491
1 10.3181 11.7449 11.9491
1 10.3048 12.5353 11.1537
1 9.52017 11.7357 11.1575
1 11.1118 12.5386 11.9491
1 11.9055 11.7449 11.9491
1 11.8915 12.5589 11.1413
1 11.1018 11.7486 11.1705
1 12.6992 12.5386 11.9491
1 13.4929 11.7449 11.9491
1 13.4901 12.5234 11.1422
1 12.6718 11.7792 11.1153
1 14.2866 12.5386 11.9491
1 15.0803 11.7449 11.9491
1 15.0813 12.5335 11.1535
1 14.2746 11.728 11.1634
1 15.874 12.5386 11.9491
1 16.6677 11.7449 11.9491
1 16.6741 12.5393 11.151
1 15.8588 11.7489 11.1514
1 17.4614 12.5386 11.9491
1 18.2551 11.7449 11.9491
1 18.2688 12.5484 11.1485
1 17.4507 11.7279 11.1583
1 19.0488 12.5386 11.9491
1 19.8425 11.7449 11.9491
1 19.8365 12.5362 11.1326
1 19.0488 11.7322 11.1349
1 20.6362 12.5386 11.9491
1 21.4299 11.7449 11.9491
1 21.4285 12.5347 11.1229
1 20.6502 11.7617 11.1529
1 22.2236 12.5386 11.9491
1 23.0173 11.7449 11.9491
1 23.0111 12.5486 11.1631
1 22.1966 11.7377 11.1539
1 23.811 12.5386 11.9491
1 24.6047 11.7449 11.9491
1 24.5926 12.5413 11.1677
1 23.815 11.7242 11.1763
1 25.3984 12.5386 11.9491
1 26.1921 11.7449 11.9491
1 26.1713 12.5464 11.1798
1 25.3869 11.7315 11.1645
1 26.9858 12.5386 11.9491
1 27.7795 11.7449 11.9491
1 27.7692 12.5554 11.1512
1 26.9905 11.7478 11.1644
1 28.5732 12.5386 11.9491
1 29.3669 11.7449 11.9491
1 29.2864 12.5404 11.1498
1 28.5361 11.7304 11.1292
1 30 10.9512 11.9491
1 0.793701 10.1575 11.9491
1 0.845562 10.9545 11.1517
1 0.0598199 10.1609 11.1339
1 1.5874 10.9512 11.9491
1 2.3811 10.1575 11.9491
1 2.3971 10.9385 11.1731
1 1.60519 10.1352 11.1435
1 3.1748 10.9512 11.9491
1 3.9685 10.1575 11.9491
1 3.96163 10.9469 11.1589
1 3.17959 10.1179 11.1412
1 4.7622 10.9512 11.9491
1 5.5559 10.1575 11.9491
1 5.60275 10.9532 11.1458
1 4.74447 10.1697 11.1618
1 6.3496 10.9512 11.9491
1 7.1433 10.1575 11.9491
1 7.13443 10.9372 11.184
1 6.33346 10.1544 11.1587
1 7.93701 10.9512 11.9491
1 8.73071 10.1575 11.9491
1 8.76357 10.9379 11.1683
1 7.94785 10.1748 11.1643
1 9.52441 10.9512 11.9491
1 10.3181 10.1575 11.9491
1 10.3274 10.9448 11.141
1 9.54492 10.1624 11.1768
1 11.1118 10.9512 11.9491
1 11.9055 10.1575 11.9491
1 11.9081 10.965 11.1776
1 11.1008 10.1538 11.152
1 12.6992 10.9512 11.9491
1 13.4929 10.1575 11.9491
1 13.4678 10.9673 11.1619
1 12.7114 10.1328 11.1423
1 14.2866 10.9512 11.9491
1 15.0803 10.1575 11.9491
1 15.0829 10.9313 11.1391
1 14.3001 10.1455 11.1506
1 15.874 10.9512 11.9491
1 16.6677 10.1575 11.9491
1 16.6795 10.9565 11.1457
1 15.8949 10.1692 11.1794
1 17.4614 10.9512 11.9491
1 18.2551 10.1575 11.9491
1 18.2518 10.9232 11.1707
1 17.4436 10.1345 11.1583
1 19.0488 10.9512 11.9491
1 19.8425 10.1575 11.9491
1 19.857 10.9322 11.1587
1 19.0752 10.1317 11.143
1 20.6362 10.9512 11.9491
1 21.4299 10.1575 11.9491
1 21.4424 10.952 11.153
1 20.6321 10.1475 11.162
1 22.2236 10.9512 11.9491
1 23.0173 10.1575 11.9491
1 23.0182 10.9636 11.146
1 22.219 10.1773 11.1654
1 23.811 10.9512 11.9491
1 24.6047 10.1575 11.9491
1 24.613 10.9233 11.1643
1 23.7952 10.153 11.1632
1 25.3984 10.9512 11.9491
1 26.1921 10.1575 11.9491
1 26.1993 10.9421 11.1693
1 25.3973 10.1733 11.1662
1 26.9858 10.9512 11.9491
1 27.7795 10.1575 11.9491
1 27.7548 10.9523 11.1618
1 26.9696 10.1585 11.1503
1 28.5732 10.9512 11.9491
1 29.3669 10.1575 11.9491
1 29.2902 10.9414 11.1185
1 28.5098 10.1301 11.1535
1 30 9.36379 11.9491
1 0.793701 8.57009 11.9491
1 0.813289 9.37182 11.1511
1 0.0653651 8.56254 11.11
1 1.5874 9.36379 11.9491
1 2.3811 8.57009 11.9491
1 2.38514 9.34627 11.1262
1 1.62147 8.55651 11.1563
1 3.1748 9.36379 11.9491
1 3.9685 8.57009 11.9491
1 3.96167 9.37854 11.1536
1 3.18445 8.58038 11.1442
1 4.7622 9.36379 11.9491
1 5.5559 8.57009 11.9491
1 5.52637 9.36669 11.1523
1 4.74668 8.58044 11.1667
1 6.3496 9.36379 11.9491
1 7.1433 8.57009 11.9491
1 7.12953 9.39582 11.1611
1 6.33963 8.59299 11.1609
1 7.93701 9.36379 11.9491
1 8.73071 8.57009 11.9491
1 8.72793 9.34556 11.1345
1 7.92655 8.59232 11.1233
1 9.52441 9.36379 11.9491
1 10.3181 8.57009 11.9491
1 10.3442 9.37813 11.1356
1 9.51478 8.5648 11.1512
1 11.1118 9.36379 11.9491
1 11.9055 8.57009 11.9491
1 11.9049 9.3644 11.1774
1 11.1136 8.56951 11.1564
1 12.6992 9.36379 11.9491
1 13.4929 8.57009 11.9491
1 13.5015 9.3567 11.1636
1 12.7089 8.57325 11.148
1 14.2866 9.36379 11.9491
1 15.0803 8.57009 11.9491
1 15.0884 9.36327 11.1524
1 14.2752 8.54721 11.1425
1 15.874 9.36379 11.9491
1 16.6677 8.57009 11.9491
1 16.6908 9.35706 11.1516
1 15.8575 8.57214 11.1781
1 17.4614 9.36379 11.9491
1 18.2551 8.57009 11.9491
1 18.2537 9.34452 11.1413
1 17.4541 8.55807 11.1881
1 19.0488 9.36379 11.9491
1 19.8425 8.57009 11.9491
1 19.8512 9.34766 11.1248
1 19.0691 8.55051 11.1524
1 20.6362 9.36379 11.9491
1 21.4299 8.57009 11.9491
1 21.4269 9.35641 11.1479
1 20.6567 8.55583 11.1329
1 22.2236 9.36379 11.9491
1 23.0173 8.57009 11.9491
1 23.0037 9.36698 11.1564
1 22.2312 8.5805 11.1245
1 23.811 9.36379 11.9491
1 24.6047 8.57009 11.9491
1 24.608 9.38141 11.1465
1 23.8299 8.60951 11.1447
1 25.3984 9.36379 11.9491
1 26.1921 8.57009 11.9491
1 26.1942 9.36736 11.1551
1 25.3626 8.59104 11.1509
1 26.9858 9.36379 11.9491
1 27.7795 8.57009 11.9491
1 27.745 9.35431 11.1551
1 26.9656 8.5625 11.1683
1 28.5732 9.36379 11.9491
1 29.3669 8.57009 11.9491
1 29.3292 9.35805 11.1385
1 28.5376 8.61131 11.1439
1 30 7.77639 11.9491
1 0.793701 6.98268 11.9491
1 0.844194 7.77092 11.1638
1 0.0619531 6.97697 11.1207
1 1.5874 7.77639 11.9491
1 2.3811 6.98268 11.9491
1 2.39126 7.78231 11.147
1 1.62778 6.98155 11.1641
1 3.1748 7.77639 11.9491
1 3.9685 6.98268 11.9491
1 3.99382 7.79124 11.1513
1 3.18457 6.97986 11.1308
1 4.7622 7.77639 11.9491
1 5.5559 6.98268 11.9491
1 5.56093 7.78746 11.1576
1 4.7805 6.97001 11.1369
1 6.3496 7.77639 11.9491
1 7.1433 6.98268 11.9491
1 7.129 7.77578 11.1607
1 6.32938 6.9776 11.1284
1 7.93701 7.77639 11.9491
1 8.73071 6.98268 11.9491
1 8.73221 7.75111 11.1599
1 7.93936 6.98597 11.1585
1 9.52441 7.77639 11.9491
1 10.3181 6.98268 11.9491
1 10.3391 7.78922 11.1691
1 9.55455 6.97243 11.1483
1 11.1118 7.77639 11.9491
1 11.9055 6.98268 11.9491
1 11.9033 7.77805 11.1356
1 11.1047 6.98298 11.1533
1 12.6992 7.77639 11.9491
1 13.4929 6.98268 11.9491
1 13.4964 7.78826 11.1582
1 12.6788 6.99131 11.1604
1 14.2866 7.77639 11.9491
1 15.0803 6.98268 11.9491
1 15.1077 7.78829 11.1353
1 14.2887 7.02591 11.1316
1 15.874 7.77639 11.9491
1 16.6677 6.98268 11.9491
1 16.6464 7.78325 11.1678
1 15.856 6.97158 11.1583
1 17.4614 7.77639 11.9491
1 18.2551 6.98268 11.9491
1 18.2271 7.78786 11.1753
1 17.4463 6.96505 11.1396
1 19.0488 7.77639 11.9491
1 19.8425 6.98268 11.9491
1 19.8634 7.75943 11.1325
1 19.0554 7.00933 11.1585
1 20.6362 7.77639 11.9491
1 21.4299 6.98268 11.9491
1 21.465 7.79011 11.1396
1 20.655 6.99785 11.1488
1 22.2236 7.77639 11.9491
1 23.0173 6.98268 11.9491
1 23.037 7.78957 11.143
1 22.2454 7.0253 11.159
1 23.811 7.77639 11.9491
1 24.6047 6.98268 11.9491
1 24.5845 7.79954 11.1521
1 23.8092 7.01259 11.1466
1 25.3984 7.77639 11.9491
1 26.1921 6.98268 11.9491
1 26.1613 7.77582 11.1582
1 25.3756 6.95677 11.1583
1 26.9858 7.77639 11.9491
1 27.7795 6.98268 11.9491
1 27.7497 7.74875 11.1359
1 26.9719 6.98681 11.1506
1 28.5732 7.77639 11.9491
1 29.3669 6.98268 11.9491
1 29.2952 7.78831 11.1208
1 28.5357 6.9579 11.1439
1 30 6.18898 11.9491
1 0.793701 5.39528 11.9491
1 0.831175 6.18154 11.1359
1 0.0453144 5.40392 11.1106
1 1.5874 6.18898 11.9491
1 2.3811 5.39528 11.9491
1 2.41531 6.17957 11.1196
1 1.59902 5.39354 11.1317
1 3.1748 6.18898 11.9491
1 3.9685 5.39528 11.9491
1 3.97991 6.17384 11.1514
1 3.18308 5.3693 11.1585
1 4.7622 6.18898 11.9491
1 5.5559 5.39528 11.9491
1 5.57878 6.18541 11.1438
1 4.77104 5.395 11.1658
1 6.3496 6.18898 11.9491
1 7.1433 5.39528 11.9491
1 7.11906 6.2034 11.1453
1 6.36722 5.39115 11.1623
1 7.93701 6.18898 11.9491
1 8.73071 5.39528 11.9491
1 8.75253 6.18945 11.1491
1 7.93868 5.38898 11.1599
1 9.52441 6.18898 11.9491