9376
Atoms. Timestep: 4000000
1 15 3.55271e-15 10.6604
1 15.7937 29.2063 10.6604
1 15.8451 29.9195 9.82189
1 15.068 29.1682 9.82599
1 16.5874 3.55271e-15 10.6604
1 17.3811 29.2063 10.6604
1 17.386 29.9429 9.83875
1 16.6289 29.1499 9.84162
1 18.1748 3.55271e-15 10.6604
1 18.9685 29.2063 10.6604
1 18.9725 29.931 9.85241
1 18.1966 29.1825 9.85478
1 19.7622 3.55271e-15 10.6604
1 20.5559 29.2063 10.6604
1 20.5565 29.9543 9.81594
1 19.786 29.1767 9.83521
1 21.3496 3.55271e-15 10.6604
1 22.1433 29.2063 10.6604
1 22.1322 29.9266 9.84897
1 21.3346 29.192 9.85787
1 22.937 3.55271e-15 10.6604
1 23.7307 29.2063 10.6604
1 23.7332 29.9189 9.85478
1 22.9247 29.1851 9.86964
1 24.5244 3.55271e-15 10.6604
1 25.3181 29.2063 10.6604
1 25.3389 29.9465 9.81546
1 24.5605 29.1716 9.86519
1 26.1118 3.55271e-15 10.6604
1 26.9055 29.2063 10.6604
1 26.9046 29.9031 9.81747
1 26.1181 29.1558 9.84907
1 27.6992 3.55271e-15 10.6604
1 28.4929 29.2063 10.6604
1 28.4949 29.9384 9.82084
1 27.6918 29.1835 9.86606
1 29.2866 3.55271e-15 10.6604
1 0.08031 29.2063 10.6604
1 0.0908837 29.9362 9.81651
1 29.3005 29.1921 9.84924
1 0.874011 3.55271e-15 10.6604
1 1.66771 29.2063 10.6604
1 1.67011 29.9144 9.83979
1 0.891715 29.1809 9.86095
1 2.46141 3.55271e-15 10.6604
1 3.25511 29.2063 10.6604
1 3.22763 29.9014 9.80553
1 2.43795 29.1714 9.89003
1 4.04881 3.55271e-15 10.6604
1 4.84251 29.2063 10.6604
1 4.82299 29.9357 9.83433
1 4.03824 29.1992 9.83507
1 5.63621 3.55271e-15 10.6604
1 6.42991 29.2063 10.6604
1 6.42896 29.9247 9.84137
1 5.62049 29.1948 9.85357
1 7.22361 3.55271e-15 10.6604
1 8.01732 29.2063 10.6604
1 8.00802 29.9284 9.83693
1 7.23337 29.169 9.8531
1 8.81102 3.55271e-15 10.6604
1 9.60472 29.2063 10.6604
1 9.58564 29.9396 9.81676
1 8.80869 29.1629 9.86699
1 10.3984 3.55271e-15 10.6604
1 11.1921 29.2063 10.6604
1 11.1732 29.9437 9.81498
1 10.3632 29.1872 9.88064
1 11.9858 3.55271e-15 10.6604
1 12.7795 29.2063 10.6604
1 12.7298 29.9365 9.83184
1 11.9702 29.1878 9.84995
1 13.5732 3.55271e-15 10.6604
1 14.3669 29.2063 10.6604
1 14.317 29.9374 9.79586
1 13.5264 29.187 9.83398
1 15 28.4126 10.6604
1 15.7937 27.6189 10.6604
1 15.8091 28.4113 9.85439
1 15.0648 27.6177 9.84886
1 16.5874 28.4126 10.6604
1 17.3811 27.6189 10.6604
1 17.406 28.3807 9.85448
1 16.612 27.5994 9.85712
1 18.1748 28.4126 10.6604
1 18.9685 27.6189 10.6604
1 18.9916 28.4052 9.86957
1 18.2037 27.6055 9.85488
1 19.7622 28.4126 10.6604
1 20.5559 27.6189 10.6604
1 20.5773 28.395 9.8462
1 19.7561 27.57 9.87188
1 21.3496 28.4126 10.6604
1 22.1433 27.6189 10.6604
1 22.1281 28.361 9.86872
1 21.327 27.6039 9.88392
1 22.937 28.4126 10.6604
1 23.7307 27.6189 10.6604
1 23.7585 28.4153 9.85077
1 22.9281 27.6139 9.88402
1 24.5244 28.4126 10.6604
1 25.3181 27.6189 10.6604
1 25.3149 28.3997 9.90741
1 24.5433 27.61 9.87238
1 26.1118 28.4126 10.6604
1 26.9055 27.6189 10.6604
1 26.9122 28.4072 9.88454
1 26.0907 27.6385 9.86713
1 27.6992 28.4126 10.6604
1 28.4929 27.6189 10.6604
1 28.504 28.3959 9.84283
1 27.6646 27.6175 9.8428
1 29.2866 28.4126 10.6604
1 0.08031 27.6189 10.6604
1 0.0880356 28.3949 9.86248
1 29.2784 27.5986 9.8788
1 0.874011 28.4126 10.6604
1 1.66771 27.6189 10.6604
1 1.69512 28.3792 9.88861
1 0.856772 27.6195 9.85645
1 2.46141 28.4126 10.6604
1 3.25511 27.6189 10.6604
1 3.25469 28.3888 9.8572
1 2.47887 27.6215 9.8585
1 4.04881 28.4126 10.6604
1 4.84251 27.6189 10.6604
1 4.82598 28.3899 9.85921
1 4.04222 27.5946 9.86385
1 5.63621 28.4126 10.6604
1 6.42991 27.6189 10.6604
1 6.43886 28.3893 9.88935
1 5.63464 27.6038 9.90413
1 7.22361 28.4126 10.6604
1 8.01732 27.6189 10.6604
1 8.03038 28.4171 9.86562
1 7.21952 27.6311 9.87674
1 8.81102 28.4126 10.6604
1 9.60472 27.6189 10.6604
1 9.61928 28.3984 9.85547
1 8.81357 27.6193 9.86285
1 10.3984 28.4126 10.6604
1 11.1921 27.6189 10.6604
1 11.1917 28.3987 9.84896
1 10.4106 27.6298 9.86369
1 11.9858 28.4126 10.6604
1 12.7795 27.6189 10.6604
1 12.7656 28.4011 9.87287
1 11.964 27.5814 9.88683
1 13.5732 28.4126 10.6604
1 14.3669 27.6189 10.6604
1 14.2989 28.3945 9.81595
1 13.5346 27.6105 9.85869
1 15 26.8252 10.6604
1 15.7937 26.0315 10.6604
1 15.8325 26.8209 9.84788
1 15.0872 26.0214 9.8294
1 16.5874 26.8252 10.6604
1 17.3811 26.0315 10.6604
1 17.4231 26.8081 9.87861
1 16.6155 26.03 9.86455
1 18.1748 26.8252 10.6604
1 18.9685 26.0315 10.6604
1 18.9797 26.8293 9.88732
1 18.1951 25.9865 9.87182
1 19.7622 26.8252 10.6604
1 20.5559 26.0315 10.6604
1 20.55 26.8046 9.87344
1 19.7644 26.0427 9.87406
1 21.3496 26.8252 10.6604
1 22.1433 26.0315 10.6604
1 22.1273 26.8127 9.89119
1 21.3542 26.02 9.8815
1 22.937 26.8252 10.6604
1 23.7307 26.0315 10.6604
1 23.7433 26.8119 9.87686
1 22.959 26.0273 9.87483
1 24.5244 26.8252 10.6604
1 25.3181 26.0315 10.6604
1 25.3001 26.798 9.87711
1 24.5469 26.0283 9.88621
1 26.1118 26.8252 10.6604
1 26.9055 26.0315 10.6604
1 26.9068 26.7943 9.86441
1 26.1129 26.0292 9.8849
1 27.6992 26.8252 10.6604
1 28.4929 26.0315 10.6604
1 28.4877 26.8171 9.86986
1 27.6921 26.0262 9.8667
1 29.2866 26.8252 10.6604
1 0.08031 26.0315 10.6604
1 0.0769883 26.8446 9.86187
1 29.2495 26.0483 9.8861
1 0.874011 26.8252 10.6604
1 1.66771 26.0315 10.6604
1 1.64533 26.857 9.86191
1 0.859382 26.0371 9.86525
1 2.46141 26.8252 10.6604
1 3.25511 26.0315 10.6604
1 3.25684 26.8186 9.88357
1 2.45507 26.0582 9.878
1 4.04881 26.8252 10.6604
1 4.84251 26.0315 10.6604
1 4.85381 26.8189 9.87245
1 4.04493 26.0149 9.86018
1 5.63621 26.8252 10.6604
1 6.42991 26.0315 10.6604
1 6.4579 26.8475 9.85599
1 5.63842 26.0272 9.83858
1 7.22361 26.8252 10.6604
1 8.01732 26.0315 10.6604
1 8.01474 26.8346 9.88838
1 7.1982 26.0424 9.87185
1 8.81102 26.8252 10.6604
1 9.60472 26.0315 10.6604
1 9.6375 26.8313 9.85703
1 8.82002 26.0483 9.88652
1 10.3984 26.8252 10.6604
1 11.1921 26.0315 10.6604
1 11.1645 26.8104 9.84573
1 10.3912 26.0016 9.87061
1 11.9858 26.8252 10.6604
1 12.7795 26.0315 10.6604
1 12.7591 26.8275 9.89118
1 11.9668 26.0023 9.87458
1 13.5732 26.8252 10.6604
1 14.3669 26.0315 10.6604
1 14.3132 26.8285 9.84671
1 13.5558 26.034 9.89011
1 15 25.2378 10.6604
1 15.7937 24.4441 10.6604
1 15.8234 25.2481 9.89104
1 15.0575 24.4483 9.8322
1 16.5874 25.2378 10.6604
1 17.3811 24.4441 10.6604
1 17.3722 25.2526 9.87519
1 16.6001 24.4471 9.8772
1 18.1748 25.2378 10.6604
1 18.9685 24.4441 10.6604
1 18.9808 25.2284 9.85377
1 18.1773 24.4435 9.87131
1 19.7622 25.2378 10.6604
1 20.5559 24.4441 10.6604
1 20.5232 25.234 9.8592
1 19.7603 24.4242 9.852
1 21.3496 25.2378 10.6604
1 22.1433 24.4441 10.6604
1 22.1411 25.2196 9.84438
1 21.3468 24.4308 9.86817
1 22.937 25.2378 10.6604
1 23.7307 24.4441 10.6604
1 23.7302 25.2444 9.8525
1 22.9351 24.4388 9.8659
1 24.5244 25.2378 10.6604
1 25.3181 24.4441 10.6604
1 25.332 25.2577 9.84173
1 24.5404 24.459 9.84958
1 26.1118 25.2378 10.6604
1 26.9055 24.4441 10.6604
1 26.9018 25.2363 9.85935
1 26.1175 24.4634 9.83875
1 27.6992 25.2378 10.6604
1 28.4929 24.4441 10.6604
1 28.491 25.2306 9.86812
1 27.6787 24.427 9.87702
1 29.2866 25.2378 10.6604
1 0.08031 24.4441 10.6604
1 0.0690494 25.2503 9.87462
1 29.2774 24.4362 9.85737
1 0.874011 25.2378 10.6604
1 1.66771 24.4441 10.6604
1 1.67706 25.2428 9.87569
1 0.874141 24.4089 9.87757
1 2.46141 25.2378 10.6604
1 3.25511 24.4441 10.6604
1 3.25278 25.2536 9.86896
1 2.45623 24.4415 9.86904
1 4.04881 25.2378 10.6604
1 4.84251 24.4441 10.6604
1 4.82919 25.2468 9.85475
1 4.05643 24.4447 9.88572
1 5.63621 25.2378 10.6604
1 6.42991 24.4441 10.6604
1 6.41114 25.2398 9.89158
1 5.62825 24.4547 9.86892
1 7.22361 25.2378 10.6604
1 8.01732 24.4441 10.6604
1 8.02865 25.2544 9.85927
1 7.2298 24.4486 9.86144
1 8.81102 25.2378 10.6604
1 9.60472 24.4441 10.6604
1 9.60938 25.2433 9.85691
1 8.80966 24.4429 9.89771
1 10.3984 25.2378 10.6604
1 11.1921 24.4441 10.6604
1 11.1915 25.2032 9.87317
1 10.3924 24.4262 9.87467
1 11.9858 25.2378 10.6604
1 12.7795 24.4441 10.6604
1 12.785 25.2238 9.87834
1 12.0199 24.4371 9.86887
1 13.5732 25.2378 10.6604
1 14.3669 24.4441 10.6604
1 14.3044 25.2281 9.83977
1 13.5436 24.4053 9.85813
1 15 23.6504 10.6604
1 15.7937 22.8567 10.6604
1 15.8155 23.6659 9.86207
1 15.0493 22.8367 9.82621
1 16.5874 23.6504 10.6604
1 17.3811 22.8567 10.6604
1 17.372 23.6418 9.8722
1 16.5812 22.8568 9.87712
1 18.1748 23.6504 10.6604
1 18.9685 22.8567 10.6604
1 18.9641 23.6381 9.84691
1 18.19 22.8563 9.85918
1 19.7622 23.6504 10.6604
1 20.5559 22.8567 10.6604
1 20.5583 23.6459 9.85748
1 19.7754 22.8493 9.87986
1 21.3496 23.6504 10.6604
1 22.1433 22.8567 10.6604
1 22.168 23.6448 9.86787
1 21.3314 22.8601 9.84484
1 22.937 23.6504 10.6604
1 23.7307 22.8567 10.6604
1 23.7286 23.6605 9.87189
1 22.9361 22.8667 9.8695
1 24.5244 23.6504 10.6604
1 25.3181 22.8567 10.6604
1 25.3342 23.6667 9.83822
1 24.5409 22.8604 9.88738
1 26.1118 23.6504 10.6604
1 26.9055 22.8567 10.6604
1 26.9055 23.6547 9.84272
1 26.0981 22.8464 9.87102
1 27.6992 23.6504 10.6604
1 28.4929 22.8567 10.6604
1 28.4812 23.6439 9.87654
1 27.7156 22.8643 9.89279
1 29.2866 23.6504 10.6604
1 0.08031 22.8567 10.6604
1 0.0908941 23.6465 9.88645
1 29.2983 22.8433 9.90736
1 0.874011 23.6504 10.6604
1 1.66771 22.8567 10.6604
1 1.67091 23.6331 9.88822
1 0.862939 22.8725 9.87375
1 2.46141 23.6504 10.6604
1 3.25511 22.8567 10.6604
1 3.22957 23.6503 9.86207
1 2.45004 22.8467 9.8753
1 4.04881 23.6504 10.6604
1 4.84251 22.8567 10.6604
1 4.83725 23.6724 9.87283
1 4.06271 22.8476 9.84239
1 5.63621 23.6504 10.6604
1 6.42991 22.8567 10.6604
1 6.42053 23.6504 9.86851
1 5.65219 22.8537 9.86176
1 7.22361 23.6504 10.6604
1 8.01732 22.8567 10.6604
1 8.0032 23.6417 9.85664
1 7.23703 22.8575 9.84708
1 8.81102 23.6504 10.6604
1 9.60472 22.8567 10.6604
1 9.60282 23.643 9.88255
1 8.8072 22.8686 9.85857
1 10.3984 23.6504 10.6604
1 11.1921 22.8567 10.6604
1 11.1896 23.6549 9.87298
1 10.405 22.851 9.86934
1 11.9858 23.6504 10.6604
1 12.7795 22.8567 10.6604
1 12.7717 23.6499 9.8442
1 11.9795 22.8684 9.8706
1 13.5732 23.6504 10.6604
1 14.3669 22.8567 10.6604
1 14.2897 23.649 9.84812
1 13.5585 22.8536 9.83954
1 15 22.063 10.6604
1 15.7937 21.2693 10.6604
1 15.821 22.0647 9.8391
1 15.0695 21.2689 9.82352
1 16.5874 22.063 10.6604
1 17.3811 21.2693 10.6604
1 17.3779 22.0685 9.88536
1 16.6266 21.282 9.86471
1 18.1748 22.063 10.6604
1 18.9685 21.2693 10.6604
1 18.9828 22.0393 9.87482
1 18.1761 21.2398 9.87367
1 19.7622 22.063 10.6604
1 20.5559 21.2693 10.6604
1 20.5698 22.0736 9.83564
1 19.7815 21.2596 9.88274
1 21.3496 22.063 10.6604
1 22.1433 21.2693 10.6604
1 22.1373 22.0762 9.85678
1 21.3618 21.2437 9.85712
1 22.937 22.063 10.6604
1 23.7307 21.2693 10.6604
1 23.7484 22.0503 9.88022
1 22.9527 21.2954 9.8868
1 24.5244 22.063 10.6604
1 25.3181 21.2693 10.6604
1 25.3213 22.0476 9.87037
1 24.5385 21.2769 9.85533
1 26.1118 22.063 10.6604
1 26.9055 21.2693 10.6604
1 26.9109 22.0692 9.86176
1 26.1048 21.2498 9.86834
1 27.6992 22.063 10.6604
1 28.4929 21.2693 10.6604
1 28.5031 22.0616 9.85865
1 27.7122 21.2598 9.88417
1 29.2866 22.063 10.6604
1 0.08031 21.2693 10.6604
1 0.0767914 22.0398 9.86863
1 29.2688 21.2778 9.85858
1 0.874011 22.063 10.6604
1 1.66771 21.2693 10.6604
1 1.66241 22.0647 9.90617
1 0.873129 21.2703 9.87709
1 2.46141 22.063 10.6604
1 3.25511 21.2693 10.6604
1 3.23325 22.0741 9.8681
1 2.45252 21.2669 9.83568
1 4.04881 22.063 10.6604
1 4.84251 21.2693 10.6604
1 4.84736 22.0723 9.87508
1 4.04432 21.2712 9.86469
1 5.63621 22.063 10.6604
1 6.42991 21.2693 10.6604
1 6.43319 22.065 9.87026
1 5.62776 21.27 9.88933
1 7.22361 22.063 10.6604
1 8.01732 21.2693 10.6604
1 8.04597 22.0675 9.88976
1 7.23643 21.2599 9.85718
1 8.81102 22.063 10.6604
1 9.60472 21.2693 10.6604
1 9.58477 22.0369 9.86254
1 8.83113 21.25 9.85953
1 10.3984 22.063 10.6604
1 11.1921 21.2693 10.6604
1 11.1935 22.0768 9.88059
1 10.4011 21.2497 9.87165
1 11.9858 22.063 10.6604
1 12.7795 21.2693 10.6604
1 12.7689 22.0836 9.86742
1 11.9724 21.2613 9.89899
1 13.5732 22.063 10.6604
1 14.3669 21.2693 10.6604
1 14.3024 22.0409 9.81307
1 13.5331 21.2847 9.85452
1 15 20.4756 10.6604
1 15.7937 19.6819 10.6604
1 15.819 20.4766 9.84417
1 15.0569 19.6822 9.84879
1 16.5874 20.4756 10.6604
1 17.3811 19.6819 10.6604
1 17.3887 20.4548 9.88189
1 16.6206 19.6614 9.86886
1 18.1748 20.4756 10.6604
1 18.9685 19.6819 10.6604
1 18.9962 20.4783 9.87344
1 18.1938 19.6908 9.86072
1 19.7622 20.4756 10.6604
1 20.5559 19.6819 10.6604
1 20.5559 20.4703 9.88084
1 19.7687 19.682 9.87274
1 21.3496 20.4756 10.6604
1 22.1433 19.6819 10.6604
1 22.1532 20.4669 9.8621
1 21.3422 19.7019 9.85383
1 22.937 20.4756 10.6604
1 23.7307 19.6819 10.6604
1 23.7289 20.4802 9.8693
1 22.9386 19.6943 9.87321
1 24.5244 20.4756 10.6604
1 25.3181 19.6819 10.6604
1 25.3229 20.4702 9.87868
1 24.524 19.6875 9.86227
1 26.1118 20.4756 10.6604
1 26.9055 19.6819 10.6604
1 26.9011 20.4845 9.85745
1 26.1098 19.6667 9.88129
1 27.6992 20.4756 10.6604
1 28.4929 19.6819 10.6604
1 28.4974 20.4851 9.86993
1 27.6912 19.6897 9.87795
1 29.2866 20.4756 10.6604
1 0.08031 19.6819 10.6604
1 0.0657459 20.5017 9.87048
1 29.2926 19.6883 9.87035
1 0.874011 20.4756 10.6604
1 1.66771 19.6819 10.6604
1 1.66022 20.4457 9.87018
1 0.856592 19.7004 9.88544
1 2.46141 20.4756 10.6604
1 3.25511 19.6819 10.6604
1 3.23775 20.4537 9.88103
1 2.45931 19.66 9.84749
1 4.04881 20.4756 10.6604
1 4.84251 19.6819 10.6604
1 4.83328 20.4703 9.88021
1 4.05766 19.6703 9.8769
1 5.63621 20.4756 10.6604
1 6.42991 19.6819 10.6604
1 6.44398 20.464 9.87995
1 5.64999 19.6841 9.87982
1 7.22361 20.4756 10.6604
1 8.01732 19.6819 10.6604
1 8.03738 20.4588 9.87037
1 7.2374 19.6902 9.86671
1 8.81102 20.4756 10.6604
1 9.60472 19.6819 10.6604
1 9.60713 20.4682 9.84531
1 8.81492 19.6742 9.8841
1 10.3984 20.4756 10.6604
1 11.1921 19.6819 10.6604
1 11.1986 20.4698 9.89831
1 10.407 19.6671 9.86512
1 11.9858 20.4756 10.6604
1 12.7795 19.6819 10.6604
1 12.7698 20.4718 9.86489
1 11.9869 19.6965 9.86528
1 13.5732 20.4756 10.6604
1 14.3669 19.6819 10.6604
1 14.3185 20.5001 9.8188
1 13.5179 19.6979 9.86506
1 15 18.8882 10.6604
1 15.7937 18.0945 10.6604
1 15.8127 18.8753 9.86062
1 15.073 18.0709 9.8134
1 16.5874 18.8882 10.6604
1 17.3811 18.0945 10.6604
1 17.3856 18.8768 9.85904
1 16.6092 18.0976 9.83728
1 18.1748 18.8882 10.6604
1 18.9685 18.0945 10.6604
1 18.9683 18.898 9.88002
1 18.1859 18.1126 9.87987
1 19.7622 18.8882 10.6604
1 20.5559 18.0945 10.6604
1 20.5624 18.8867 9.87617
1 19.7776 18.091 9.87114
1 21.3496 18.8882 10.6604
1 22.1433 18.0945 10.6604
1 22.1222 18.8721 9.8732
1 21.3212 18.0879 9.87407
1 22.937 18.8882 10.6604
1 23.7307 18.0945 10.6604
1 23.741 18.8958 9.83978
1 22.9364 18.0837 9.86744
1 24.5244 18.8882 10.6604
1 25.3181 18.0945 10.6604
1 25.3328 18.897 9.86226
1 24.5287 18.085 9.8638
1 26.1118 18.8882 10.6604
1 26.9055 18.0945 10.6604
1 26.8907 18.8722 9.85988
1 26.1068 18.091 9.86681
1 27.6992 18.8882 10.6604
1 28.4929 18.0945 10.6604
1 28.4992 18.8948 9.87088
1 27.716 18.1152 9.86809
1 29.2866 18.8882 10.6604
1 0.08031 18.0945 10.6604
1 0.0963971 18.8809 9.86093
1 29.2635 18.0824 9.87627
1 0.874011 18.8882 10.6604
1 1.66771 18.0945 10.6604
1 1.63811 18.88 9.86104
1 0.866645 18.0965 9.85969
1 2.46141 18.8882 10.6604
1 3.25511 18.0945 10.6604
1 3.26841 18.8974 9.86012
1 2.47272 18.1216 9.87467
1 4.04881 18.8882 10.6604
1 4.84251 18.0945 10.6604
1 4.84697 18.8762 9.88506
1 4.05035 18.1003 9.85926
1 5.63621 18.8882 10.6604
1 6.42991 18.0945 10.6604
1 6.43868 18.9061 9.86809
1 5.63913 18.1087 9.8774
1 7.22361 18.8882 10.6604
1 8.01732 18.0945 10.6604
1 8.02521 18.8817 9.87452
1 7.24193 18.119 9.86624
1 8.81102 18.8882 10.6604
1 9.60472 18.0945 10.6604
1 9.57709 18.9083 9.88125
1 8.82466 18.0786 9.85817
1 10.3984 18.8882 10.6604
1 11.1921 18.0945 10.6604
1 11.1871 18.8814 9.87658
1 10.4145 18.1177 9.86411
1 11.9858 18.8882 10.6604
1 12.7795 18.0945 10.6604
1 12.7731 18.8737 9.85272
1 11.9707 18.0978 9.85449
1 13.5732 18.8882 10.6604
1 14.3669 18.0945 10.6604
1 14.324 18.8911 9.81214
1 13.5192 18.0991 9.86579
1 15 17.3008 10.6604
1 15.7937 16.5071 10.6604
1 15.8249 17.2951 9.86028
1 15.074 16.4901 9.82265
1 16.5874 17.3008 10.6604
1 17.3811 16.5071 10.6604
1 17.3925 17.2832 9.88593
1 16.5966 16.5018 9.8577
1 18.1748 17.3008 10.6604
1 18.9685 16.5071 10.6604
1 18.9549 17.2999 9.85982
1 18.1875 16.4883 9.85649
1 19.7622 17.3008 10.6604
1 20.5559 16.5071 10.6604
1 20.5419 17.2974 9.86148
1 19.7628 16.5083 9.85825
1 21.3496 17.3008 10.6604
1 22.1433 16.5071 10.6604
1 22.143 17.2864 9.89373
1 21.3519 16.5282 9.88217
1 22.937 17.3008 10.6604
1 23.7307 16.5071 10.6604
1 23.7147 17.298 9.87405
1 22.9549 16.5035 9.87107
1 24.5244 17.3008 10.6604
1 25.3181 16.5071 10.6604
1 25.3403 17.2631 9.85821
1 24.5103 16.5137 9.83828
1 26.1118 17.3008 10.6604
1 26.9055 16.5071 10.6604
1 26.9181 17.3082 9.86519
1 26.1534 16.4863 9.86076
1 27.6992 17.3008 10.6604
1 28.4929 16.5071 10.6604
1 28.4947 17.2952 9.88145
1 27.6883 16.5026 9.87901
1 29.2866 17.3008 10.6604
1 0.08031 16.5071 10.6604
1 0.0758229 17.32 9.86245
1 29.2696 16.5099 9.867
1 0.874011 17.3008 10.6604
1 1.66771 16.5071 10.6604
1 1.68519 17.3219 9.85865
1 0.878493 16.5306 9.89384
1 2.46141 17.3008 10.6604
1 3.25511 16.5071 10.6604
1 3.23803 17.3158 9.86387
1 2.47362 16.4959 9.84462
1 4.04881 17.3008 10.6604
1 4.84251 16.5071 10.6604
1 4.83611 17.3137 9.89619
1 4.02815 16.508 9.89452
1 5.63621 17.3008 10.6604
1 6.42991 16.5071 10.6604
1 6.43471 17.3216 9.86087
1 5.64786 16.5194 9.87474
1 7.22361 17.3008 10.6604
1 8.01732 16.5071 10.6604
1 8.00551 17.3065 9.86939
1 7.22049 16.5156 9.88402
1 8.81102 17.3008 10.6604
1 9.60472 16.5071 10.6604
1 9.60539 17.3264 9.85571
1 8.82282 16.5282 9.85906
1 10.3984 17.3008 10.6604
1 11.1921 16.5071 10.6604
1 11.1934 17.3135 9.85362
1 10.3855 16.5327 9.86715
1 11.9858 17.3008 10.6604
1 12.7795 16.5071 10.6604
1 12.7544 17.3013 9.85281
1 11.9676 16.5207 9.85242
1 13.5732 17.3008 10.6604
1 14.3669 16.5071 10.6604
1 14.2989 17.3186 9.84354
1 13.5549 16.5076 9.86341
1 15 15.7134 10.6604
1 15.7937 14.9197 10.6604
1 15.8199 15.7209 9.86732
1 15.0935 14.9447 9.84254
1 16.5874 15.7134 10.6604
1 17.3811 14.9197 10.6604
1 17.4109 15.7065 9.85595
1 16.6224 14.9296 9.8573
1 18.1748 15.7134 10.6604
1 18.9685 14.9197 10.6604
1 18.9846 15.7269 9.87163
1 18.1852 14.9026 9.88079
1 19.7622 15.7134 10.6604
1 20.5559 14.9197 10.6604
1 20.5755 15.7343 9.8772
1 19.7618 14.9357 9.89107
1 21.3496 15.7134 10.6604
1 22.1433 14.9197 10.6604
1 22.1519 15.7178 9.873
1 21.3547 14.9076 9.86798
1 22.937 15.7134 10.6604
1 23.7307 14.9197 10.6604
1 23.7167 15.6927 9.86978
1 22.9221 14.8985 9.90412
1 24.5244 15.7134 10.6604
1 25.3181 14.9197 10.6604
1 25.323 15.7115 9.86915
1 24.5186 14.9213 9.8614
1 26.1118 15.7134 10.6604
1 26.9055 14.9197 10.6604
1 26.9051 15.6763 9.83832
1 26.1261 14.8901 9.86382
1 27.6992 15.7134 10.6604
1 28.4929 14.9197 10.6604
1 28.5091 15.6986 9.86442
1 27.7005 14.9113 9.86534
1 29.2866 15.7134 10.6604
1 0.08031 14.9197 10.6604
1 0.0763395 15.7304 9.86715
1 29.2756 14.9252 9.87038
1 0.874011 15.7134 10.6604
1 1.66771 14.9197 10.6604
1 1.67428 15.7354 9.88098
1 0.875152 14.9406 9.85966
1 2.46141 15.7134 10.6604
1 3.25511 14.9197 10.6604
1 3.27246 15.7039 9.86153
1 2.46137 14.9268 9.86559
1 4.04881 15.7134 10.6604
1 4.84251 14.9197 10.6604
1 4.85239 15.6952 9.85796
1 4.04278 14.8934 9.89227
1 5.63621 15.7134 10.6604
1 6.42991 14.9197 10.6604
1 6.42476 15.7272 9.87349
1 5.63121 14.9184 9.84246
1 7.22361 15.7134 10.6604
1 8.01732 14.9197 10.6604
1 8.00658 15.7063 9.85081
1 7.22075 14.9028 9.84135
1 8.81102 15.7134 10.6604
1 9.60472 14.9197 10.6604
1 9.59372 15.7303 9.83646
1 8.81193 14.908 9.85782
1 10.3984 15.7134 10.6604
1 11.1921 14.9197 10.6604
1 11.1672 15.7277 9.8741
1 10.3933 14.9188 9.84895
1 11.9858 15.7134 10.6604
1 12.7795 14.9197 10.6604
1 12.7412 15.706 9.85371
1 11.9654 14.9186 9.87991
1 13.5732 15.7134 10.6604
1 14.3669 14.9197 10.6604
1 14.2894 15.6835 9.8253
1 13.535 14.8901 9.86782
1 15 14.126 10.6604
1 15.7937 13.3323 10.6604
1 15.82 14.1142 9.85532
1 15.0721 13.3404 9.83023
1 16.5874 14.126 10.6604
1 17.3811 13.3323 10.6604
1 17.3806 14.1352 9.84257
1 16.5945 13.3378 9.87658
1 18.1748 14.126 10.6604
1 18.9685 13.3323 10.6604
1 18.965 14.1186 9.88155
1 18.189 13.3206 9.85867
1 19.7622 14.126 10.6604
1 20.5559 13.3323 10.6604
1 20.5463 14.1433 9.85701
1 19.7784 13.3125 9.86478
1 21.3496 14.126 10.6604
1 22.1433 13.3323 10.6604
1 22.1385 14.1344 9.88964
1 21.3472 13.3483 9.85784
1 22.937 14.126 10.6604
1 23.7307 13.3323 10.6604
1 23.7514 14.1116 9.86424
1 22.9238 13.3386 9.86184
1 24.5244 14.126 10.6604
1 25.3181 13.3323 10.6604
1 25.3385 14.1341 9.87486
1 24.5099 13.3422 9.84851
1 26.1118 14.126 10.6604
1 26.9055 13.3323 10.6604
1 26.9059 14.1103 9.8448
1 26.1264 13.3243 9.85903
1 27.6992 14.126 10.6604
1 28.4929 13.3323 10.6604
1 28.4882 14.1373 9.87763
1 27.6768 13.3097 9.84507
1 29.2866 14.126 10.6604
1 0.08031 13.3323 10.6604
1 0.0774683 14.1247 9.85938
1 29.3022 13.3482 9.89022
1 0.874011 14.126 10.6604
1 1.66771 13.3323 10.6604
1 1.67018 14.1337 9.86195
1 0.884269 13.355 9.87428
1 2.46141 14.126 10.6604
1 3.25511 13.3323 10.6604
1 3.23953 14.1276 9.86102
1 2.45475 13.3364 9.87366
1 4.04881 14.126 10.6604
1 4.84251 13.3323 10.6604
1 4.85332 14.1071 9.84615
1 4.0447 13.3648 9.85228
1 5.63621 14.126 10.6604
1 6.42991 13.3323 10.6604
1 6.43681 14.116 9.87558
1 5.63386 13.3355 9.86209
1 7.22361 14.126 10.6604
1 8.01732 13.3323 10.6604
1 8.01504 14.1216 9.87164
1 7.21227 13.3389 9.8363
1 8.81102 14.126 10.6604
1 9.60472 13.3323 10.6604
1 9.59258 14.1138 9.84214
1 8.80815 13.334 9.88226
1 10.3984 14.126 10.6604
1 11.1921 13.3323 10.6604
1 11.1968 14.1382 9.84734
1 10.3972 13.3374 9.86535
1 11.9858 14.126 10.6604
1 12.7795 13.3323 10.6604
1 12.7284 14.1358 9.8625
1 11.97 13.3243 9.87329
1 13.5732 14.126 10.6604
1 14.3669 13.3323 10.6604
1 14.3239 14.1299 9.82334
1 13.5658 13.3492 9.87488
1 15 12.5386 10.6604
1 15.7937 11.7449 10.6604
1 15.8301 12.5432 9.85945
1 15.0732 11.7359 9.83899
1 16.5874 12.5386 10.6604
1 17.3811 11.7449 10.6604
1 17.4108 12.5335 9.86066
1 16.6052 11.7342 9.87696
1 18.1748 12.5386 10.6604
1 18.9685 11.7449 10.6604
1 18.9991 12.5225 9.85913
1 18.1804 11.7459 9.86504
1 19.7622 12.5386 10.6604
1 20.5559 11.7449 10.6604
1 20.5769 12.5094 9.85603
1 19.7694 11.7389 9.85486
1 21.3496 12.5386 10.6604
1 22.1433 11.7449 10.6604
1 22.1354 12.5471 9.84791
1 21.3827 11.752 9.86523
1 22.937 12.5386 10.6604
1 23.7307 11.7449 10.6604
1 23.71 12.5424 9.88097
1 22.9181 11.752 9.85107
1 24.5244 12.5386 10.6604
1 25.3181 11.7449 10.6604
1 25.3039 12.5385 9.85996
1 24.5206 11.754 9.8651
1 26.1118 12.5386 10.6604
1 26.9055 11.7449 10.6604
1 26.8893 12.5353 9.85037
1 26.1084 11.7491 9.86534
1 27.6992 12.5386 10.6604
1 28.4929 11.7449 10.6604
1 28.4767 12.5501 9.85297
1 27.6694 11.7666 9.86406
1 29.2866 12.5386 10.6604
1 0.08031 11.7449 10.6604
1 0.0982813 12.5392 9.86329
1 29.2737 11.7715 9.86119
1 0.874011 12.5386 10.6604
1 1.66771 11.7449 10.6604
1 1.68563 12.5207 9.85142
1 0.865194 11.743 9.87653
1 2.46141 12.5386 10.6604
1 3.25511 11.7449 10.6604
1 3.27005 12.5414 9.86507
1 2.46522 11.7382 9.85604
1 4.04881 12.5386 10.6604
1 4.84251 11.7449 10.6604
1 4.82103 12.5317 9.85697
1 4.0305 11.7301 9.87763
1 5.63621 12.5386 10.6604
1 6.42991 11.7449 10.6604
1 6.43 12.5123 9.8796
1 5.62391 11.7323 9.86112
1 7.22361 12.5386 10.6604
1 8.01732 11.7449 10.6604
1 8.06097 12.5399 9.85828
1 7.23407 11.7448 9.86284
1 8.81102 12.5386 10.6604
1 9.60472 11.7449 10.6604
1 9.5938 12.5396 9.83491
1 8.80841 11.7454 9.86566
1 10.3984 12.5386 10.6604
1 11.1921 11.7449 10.6604
1 11.187 12.5319 9.88962
1 10.3832 11.7524 9.87455
1 11.9858 12.5386 10.6604
1 12.7795 11.7449 10.6604
1 12.7882 12.5275 9.87926
1 11.9746 11.7365 9.88273
1 13.5732 12.5386 10.6604
1 14.3669 11.7449 10.6604
1 14.2927 12.5413 9.8454
1 13.5442 11.7126 9.85684
1 15 10.9512 10.6604
1 15.7937 10.1575 10.6604
1 15.8401 10.9639 9.86124
1 15.0763 10.1481 9.83564
1 16.5874 10.9512 10.6604
1 17.3811 10.1575 10.6604
1 17.3978 10.9382 9.8755
1 16.6144 10.1521 9.84258
1 18.1748 10.9512 10.6604
1 18.9685 10.1575 10.6604
1 18.9594 10.9538 9.8751
1 18.18 10.1622 9.85566
1 19.7622 10.9512 10.6604
1 20.5559 10.1575 10.6604
1 20.5721 10.952 9.88087
1 19.7728 10.1829 9.85828
1 21.3496 10.9512 10.6604
1 22.1433 10.1575 10.6604
1 22.1574 10.9631 9.87238
1 21.3687 10.1656 9.87122
1 22.937 10.9512 10.6604
1 23.7307 10.1575 10.6604
1 23.7311 10.9492 9.85489
1 22.9329 10.165 9.85568
1 24.5244 10.9512 10.6604
1 25.3181 10.1575 10.6604
1 25.3176 10.9705 9.89192
1 24.5347 10.1751 9.85893
1 26.1118 10.9512 10.6604
1 26.9055 10.1575 10.6604
1 26.8893 10.9598 9.87242
1 26.1044 10.1699 9.83784
1 27.6992 10.9512 10.6604
1 28.4929 10.1575 10.6604
1 28.4998 10.9456 9.86996
1 27.6988 10.1557 9.86726
1 29.2866 10.9512 10.6604
1 0.08031 10.1575 10.6604
1 0.0622472 10.9297 9.87355
1 29.2574 10.1372 9.87779
1 0.874011 10.9512 10.6604
1 1.66771 10.1575 10.6604
1 1.65221 10.9483 9.87183
1 0.876157 10.1621 9.86478
1 2.46141 10.9512 10.6604
1 3.25511 10.1575 10.6604
1 3.25833 10.9017 9.85631
1 2.43054 10.1344 9.84931
1 4.04881 10.9512 10.6604
1 4.84251 10.1575 10.6604
1 4.84109 10.9371 9.86039
1 4.04473 10.1518 9.8715
1 5.63621 10.9512 10.6604
1 6.42991 10.1575 10.6604
1 6.42425 10.9254 9.88949
1 5.61122 10.1639 9.88213
1 7.22361 10.9512 10.6604
1 8.01732 10.1575 10.6604
1 8.01531 10.947 9.86341
1 7.22971 10.1361 9.85698
1 8.81102 10.9512 10.6604
1 9.60472 10.1575 10.6604
1 9.58452 10.9525 9.87019
1 8.81343 10.1526 9.8582
1 10.3984 10.9512 10.6604
1 11.1921 10.1575 10.6604
1 11.182 10.9472 9.85622
1 10.3877 10.1692 9.84504
1 11.9858 10.9512 10.6604
1 12.7795 10.1575 10.6604
1 12.7642 10.9347 9.85645
1 11.953 10.1357 9.85265
1 13.5732 10.9512 10.6604
1 14.3669 10.1575 10.6604
1 14.2876 10.9378 9.84947
1 13.5173 10.1491 9.85677
1 15 9.36379 10.6604
1 15.7937 8.57009 10.6604
1 15.8504 9.34783 9.85406
1 15.0843 8.5678 9.83756
1 16.5874 9.36379 10.6604
1 17.3811 8.57009 10.6604
1 17.3971 9.37736 9.87594
1 16.6279 8.56508 9.88507
1 18.1748 9.36379 10.6604
1 18.9685 8.57009 10.6604
1 19.0121 9.36721 9.87321
1 18.2197 8.58957 9.85169
1 19.7622 9.36379 10.6604
1 20.5559 8.57009 10.6604
1 20.5479 9.36615 9.85701
1 19.7851 8.56847 9.88978
1 21.3496 9.36379 10.6604
1 22.1433 8.57009 10.6604
1 22.1478 9.37062 9.89153
1 21.3658 8.55141 9.88336
1 22.937 9.36379 10.6604
1 23.7307 8.57009 10.6604
1 23.7304 9.3696 9.86442
1 22.9471 8.57388 9.89092
1 24.5244 9.36379 10.6604
1 25.3181 8.57009 10.6604
1 25.3127 9.39229 9.85151
1 24.534 8.59095 9.85695
1 26.1118 9.36379 10.6604
1 26.9055 8.57009 10.6604
1 26.8786 9.37482 9.83364
1 26.1251 8.56976 9.86512
1 27.6992 9.36379 10.6604
1 28.4929 8.57009 10.6604
1 28.4876 9.34431 9.87488
1 27.6885 8.56664 9.87647
1 29.2866 9.36379 10.6604
1 0.08031 8.57009 10.6604
1 0.0733495 9.3723 9.86743
1 29.3129 8.58048 9.88244
1 0.874011 9.36379 10.6604
1 1.66771 8.57009 10.6604
1 1.6705 9.34661 9.83972
1 0.872001 8.55791 9.85863
1 2.46141 9.36379 10.6604
1 3.25511 8.57009 10.6604
1 3.23938 9.36563 9.83622
1 2.44903 8.56071 9.84745
1 4.04881 9.36379 10.6604
1 4.84251 8.57009 10.6604
1 4.84067 9.36583 9.87802
1 4.05493 8.59012 9.86444
1 5.63621 9.36379 10.6604
1 6.42991 8.57009 10.6604
1 6.41268 9.36567 9.8632
1 5.64925 8.56422 9.86263
1 7.22361 9.36379 10.6604
1 8.01732 8.57009 10.6604
1 8.01255 9.35372 9.8728
1 7.22494 8.56589 9.86478
1 8.81102 9.36379 10.6604
1 9.60472 8.57009 10.6604
1 9.59841 9.33254 9.88077
1 8.79442 8.5667 9.85452
1 10.3984 9.36379 10.6604
1 11.1921 8.57009 10.6604
1 11.1609 9.36967 9.86026
1 10.3854 8.56904 9.86289
1 11.9858 9.36379 10.6604
1 12.7795 8.57009 10.6604
1 12.7702 9.36157 9.87248
1 11.9737 8.57188 9.89187
1 13.5732 9.36379 10.6604
1 14.3669 8.57009 10.6604
1 14.2955 9.3262 9.85064
1 13.5476 8.58858 9.86568
1 15 7.77639 10.6604
1 15.7937 6.98268 10.6604
1 15.8171 7.76236 9.83878
1 15.0581 6.96808 9.82382
1 16.5874 7.77639 10.6604
1 17.3811 6.98268 10.6604
1 17.4026 7.80133 9.83948
1 16.6459 7.0094 9.87023
1 18.1748 7.77639 10.6604
1 18.9685 6.98268 10.6604
1 18.9901 7.79787 9.87798
1 18.1848 6.99205 9.87986
1 19.7622 7.77639 10.6604
1 20.5559 6.98268 10.6604
1 20.5529 7.76054 9.87897
1 19.7484 7.01373 9.88169
1 21.3496 7.77639 10.6604
1 22.1433 6.98268 10.6604
1 22.15 7.76769 9.88622
1 21.357 6.99238 9.84686
1 22.937 7.77639 10.6604
1 23.7307 6.98268 10.6604
1 23.719 7.79039 9.84809
1 22.9531 6.96472 9.88293
1 24.5244 7.77639 10.6604
1 25.3181 6.98268 10.6604
1 25.3132 7.8077 9.8727
1 24.5478 6.98412 9.87663
1 26.1118 7.77639 10.6604
1 26.9055 6.98268 10.6604
1 26.8969 7.75972 9.86284
1 26.0764 6.96485 9.85907
1 27.6992 7.77639 10.6604
1 28.4929 6.98268 10.6604
1 28.4815 7.78595 9.8823
1 27.7063 6.991 9.86071
1 29.2866 7.77639 10.6604
1 0.08031 6.98268 10.6604
1 0.0543455 7.78081 9.85261
1 29.2901 6.98467 9.86236
1 0.874011 7.77639 10.6604
1 1.66771 6.98268 10.6604
1 1.68276 7.77063 9.86122
1 0.862853 7.01814 9.88225
1 2.46141 7.77639 10.6604
1 3.25511 6.98268 10.6604
1 3.25774 7.75683 9.86294
1 2.44483 7.00345 9.85453
1 4.04881 7.77639 10.6604
1 4.84251 6.98268 10.6604
1 4.83924 7.76378 9.85437
1 4.05329 6.98923 9.83001
1 5.63621 7.77639 10.6604
1 6.42991 6.98268 10.6604
1 6.43624 7.7727 9.85633
1 5.63731 6.98745 9.85351
1 7.22361 7.77639 10.6604
1 8.01732 6.98268 10.6604
1 8.00299 7.7698 9.8543
1 7.22119 6.96797 9.85702
1 8.81102 7.77639 10.6604
1 9.60472 6.98268 10.6604
1 9.58763 7.80004 9.89035
1 8.79026 6.99406 9.88413
1 10.3984 7.77639 10.6604
1 11.1921 6.98268 10.6604
1 11.1797 7.77617 9.88736
1 10.3834 6.98115 9.88784
1 11.9858 7.77639 10.6604
1 12.7795 6.98268 10.6604
1 12.7436 7.79072 9.86474
1 11.9452 6.98417 9.83602
1 13.5732 7.77639 10.6604
1 14.3669 6.98268 10.6604
1 14.2775 7.75409 9.82744
1 13.5085 6.95689 9.86291
1 15 6.18898 10.6604
1 15.7937 5.39528 10.6604
1 15.8363 6.20804 9.86056
1 15.0594 5.43531 9.8551
1 16.5874 6.18898 10.6604
1 17.3811 5.39528 10.6604
1 17.3982 6.18723 9.85271
1 16.6038 5.36574 9.86628
1 18.1748 6.18898 10.6604
1 18.9685 5.39528 10.6604
1 18.985 6.1988 9.87737
1 18.1876 5.38531 9.87123
1 19.7622 6.18898 10.6604
1 20.5559 5.39528 10.6604
1 20.5634 6.19638 9.84617
1 19.7784 5.41811 9.86992
1 21.3496 6.18898 10.6604
1 22.1433 5.39528 10.6604
1 22.1477 6.19355 9.8662
1 21.3607 5.39908 9.90102