9376
Atoms. Timestep: 4000000
1 1.125 3.55271e-15 10.6103
1 1.9187 29.2063 10.6103
1 1.94569 29.9167 9.77304
1 1.19236 29.1806 9.76653
1 2.7124 3.55271e-15 10.6103
1 3.5061 29.2063 10.6103
1 3.51563 29.9022 9.75089
1 2.69265 29.1699 9.83716
1 4.2998 3.55271e-15 10.6103
1 5.0935 29.2063 10.6103
1 5.0982 29.9326 9.77618
1 4.29976 29.2015 9.78132
1 5.8872 3.55271e-15 10.6103
1 6.6809 29.2063 10.6103
1 6.68799 29.9238 9.7816
1 5.88232 29.1925 9.78579
1 7.4746 3.55271e-15 10.6103
1 8.2683 29.2063 10.6103
1 8.27243 29.9259 9.77939
1 7.48281 29.1714 9.80956
1 9.06201 3.55271e-15 10.6103
1 9.85571 29.2063 10.6103
1 9.84992 29.9452 9.76459
1 9.05247 29.1608 9.81943
1 10.6494 3.55271e-15 10.6103
1 11.4431 29.2063 10.6103
1 11.4609 29.9369 9.76067
1 10.6116 29.1861 9.8301
1 12.2368 3.55271e-15 10.6103
1 13.0305 29.2063 10.6103
1 13.016 29.9311 9.78243
1 12.2368 29.189 9.81258
1 13.8242 3.55271e-15 10.6103
1 14.6179 29.2063 10.6103
1 14.6296 29.9343 9.7895
1 13.8162 29.181 9.80497
1 15.4116 3.55271e-15 10.6103
1 16.2053 29.2063 10.6103
1 16.2206 29.9128 9.78497
1 15.4025 29.1578 9.80562
1 16.999 3.55271e-15 10.6103
1 17.7927 29.2063 10.6103
1 17.8014 29.9358 9.7768
1 16.9991 29.1481 9.79948
1 18.5864 3.55271e-15 10.6103
1 19.3801 29.2063 10.6103
1 19.3754 29.9434 9.81315
1 18.5811 29.182 9.7973
1 20.1738 3.55271e-15 10.6103
1 20.9675 29.2063 10.6103
1 20.9745 29.949 9.77935
1 20.1807 29.1822 9.7893
1 21.7612 3.55271e-15 10.6103
1 22.5549 29.2063 10.6103
1 22.5575 29.9284 9.79196
1 21.7591 29.1922 9.80151
1 23.3486 3.55271e-15 10.6103
1 24.1423 29.2063 10.6103
1 24.1354 29.9045 9.79884
1 23.3407 29.1789 9.79471
1 24.936 3.55271e-15 10.6103
1 25.7297 29.2063 10.6103
1 25.7412 29.9412 9.75224
1 24.9418 29.1601 9.81226
1 26.5234 3.55271e-15 10.6103
1 27.3171 29.2063 10.6103
1 27.3209 29.9043 9.77592
1 26.5245 29.1621 9.81528
1 28.1108 3.55271e-15 10.6103
1 28.9045 29.2063 10.6103
1 28.8943 29.9467 9.77633
1 28.1049 29.1918 9.81165
1 29.6982 3.55271e-15 10.6103
1 0.491919 29.2063 10.6103
1 0.427569 29.9409 9.73609
1 29.6674 29.1959 9.78974
1 1.125 28.4126 10.6103
1 1.9187 27.6189 10.6103
1 1.94041 28.3861 9.81995
1 1.17533 27.6232 9.77498
1 2.7124 28.4126 10.6103
1 3.5061 27.6189 10.6103
1 3.51521 28.3965 9.82119
1 2.75241 27.6355 9.82046
1 4.2998 28.4126 10.6103
1 5.0935 27.6189 10.6103
1 5.09041 28.395 9.79915
1 4.30592 27.6035 9.813
1 5.8872 28.4126 10.6103
1 6.6809 27.6189 10.6103
1 6.66271 28.3906 9.82676
1 5.88696 27.6067 9.83724
1 7.4746 28.4126 10.6103
1 8.2683 27.6189 10.6103
1 8.27156 28.4124 9.81965
1 7.46241 27.6298 9.84021
1 9.06201 28.4126 10.6103
1 9.85571 27.6189 10.6103
1 9.85583 28.3948 9.80569
1 9.07496 27.6141 9.80554
1 10.6494 28.4126 10.6103
1 11.4431 27.6189 10.6103
1 11.4434 28.4002 9.80864
1 10.6711 27.6253 9.82686
1 12.2368 28.4126 10.6103
1 13.0305 27.6189 10.6103
1 13.0317 28.402 9.83313
1 12.2213 27.5742 9.83899
1 13.8242 28.4126 10.6103
1 14.6179 27.6189 10.6103
1 14.6106 28.3862 9.79631
1 13.834 27.6044 9.80406
1 15.4116 28.4126 10.6103
1 16.2053 27.6189 10.6103
1 16.189 28.4013 9.80861
1 15.4218 27.6148 9.83061
1 16.999 28.4126 10.6103
1 17.7927 27.6189 10.6103
1 17.7904 28.3805 9.80294
1 16.9969 27.5985 9.81758
1 18.5864 28.4126 10.6103
1 19.3801 27.6189 10.6103
1 19.3873 28.4111 9.82117
1 18.5987 27.6022 9.80593
1 20.1738 28.4126 10.6103
1 20.9675 27.6189 10.6103
1 20.9663 28.3964 9.8153
1 20.1612 27.5731 9.83494
1 21.7612 28.4126 10.6103
1 22.5549 27.6189 10.6103
1 22.5374 28.355 9.80303
1 21.7377 27.599 9.82844
1 23.3486 28.4126 10.6103
1 24.1423 27.6189 10.6103
1 24.1423 28.4056 9.79592
1 23.3428 27.6117 9.81235
1 24.936 28.4126 10.6103
1 25.7297 27.6189 10.6103
1 25.7024 28.3989 9.8489
1 24.9533 27.6168 9.81216
1 26.5234 28.4126 10.6103
1 27.3171 27.6189 10.6103
1 27.3274 28.4118 9.83109
1 26.5011 27.6385 9.83475
1 28.1108 28.4126 10.6103
1 28.9045 27.6189 10.6103
1 28.8868 28.4043 9.78094
1 28.0795 27.6175 9.7926
1 29.6982 28.4126 10.6103
1 0.491919 27.6189 10.6103
1 0.416615 28.3949 9.78569
1 29.6666 27.5883 9.80075
1 1.125 26.8252 10.6103
1 1.9187 26.0315 10.6103
1 1.92251 26.861 9.7977
1 1.18557 26.0382 9.79372
1 2.7124 26.8252 10.6103
1 3.5061 26.0315 10.6103
1 3.51763 26.8253 9.84425
1 2.73468 26.055 9.82781
1 4.2998 26.8252 10.6103
1 5.0935 26.0315 10.6103
1 5.12644 26.8235 9.81971
1 4.29593 26.0092 9.81993
1 5.8872 26.8252 10.6103
1 6.6809 26.0315 10.6103
1 6.69378 26.8426 9.79767
1 5.89232 26.0293 9.78136
1 7.4746 26.8252 10.6103
1 8.2683 26.0315 10.6103
1 8.25946 26.8338 9.82531
1 7.46001 26.0433 9.81517
1 9.06201 26.8252 10.6103
1 9.85571 26.0315 10.6103
1 9.89736 26.8245 9.80533
1 9.08136 26.0455 9.82621
1 10.6494 26.8252 10.6103
1 11.4431 26.0315 10.6103
1 11.4346 26.8059 9.79568
1 10.66 25.9978 9.82336
1 12.2368 26.8252 10.6103
1 13.0305 26.0315 10.6103
1 13.0329 26.8241 9.83303
1 12.234 25.9984 9.81133
1 13.8242 26.8252 10.6103
1 14.6179 26.0315 10.6103
1 14.6215 26.8297 9.82674
1 13.838 26.0362 9.83023
1 15.4116 26.8252 10.6103
1 16.2053 26.0315 10.6103
1 16.2109 26.8228 9.81069
1 15.4213 26.0241 9.79389
1 16.999 26.8252 10.6103
1 17.7927 26.0315 10.6103
1 17.8216 26.8008 9.82308
1 17.007 26.0248 9.81603
1 18.5864 26.8252 10.6103
1 19.3801 26.0315 10.6103
1 19.3808 26.8226 9.83537
1 18.5907 25.9834 9.81893
1 20.1738 26.8252 10.6103
1 20.9675 26.0315 10.6103
1 20.9625 26.8033 9.82789
1 20.1738 26.0392 9.84416
1 21.7612 26.8252 10.6103
1 22.5549 26.0315 10.6103
1 22.543 26.8135 9.81809
1 21.7735 26.0141 9.8225
1 23.3486 26.8252 10.6103
1 24.1423 26.0315 10.6103
1 24.1482 26.8168 9.83125
1 23.3623 26.0336 9.80817
1 24.936 26.8252 10.6103
1 25.7297 26.0315 10.6103
1 25.7017 26.8052 9.8331
1 24.9401 26.0316 9.84133
1 26.5234 26.8252 10.6103
1 27.3171 26.0315 10.6103
1 27.3159 26.7928 9.81867
1 26.5115 26.034 9.84645
1 28.1108 26.8252 10.6103
1 28.9045 26.0315 10.6103
1 28.8867 26.8081 9.82122
1 28.0936 26.0299 9.81905
1 29.6982 26.8252 10.6103
1 0.491919 26.0315 10.6103
1 0.407309 26.8364 9.78523
1 29.6542 26.0275 9.81523
1 1.125 25.2378 10.6103
1 1.9187 24.4441 10.6103
1 1.96327 25.2461 9.81518
1 1.21123 24.4069 9.79921
1 2.7124 25.2378 10.6103
1 3.5061 24.4441 10.6103
1 3.51569 25.2451 9.81767
1 2.72883 24.447 9.80605
1 4.2998 25.2378 10.6103
1 5.0935 24.4441 10.6103
1 5.10325 25.2418 9.7989
1 4.31903 24.4349 9.83511
1 5.8872 25.2378 10.6103
1 6.6809 24.4441 10.6103
1 6.66974 25.2431 9.83119
1 5.89937 24.4566 9.83281
1 7.4746 25.2378 10.6103
1 8.2683 24.4441 10.6103
1 8.28588 25.2597 9.80891
1 7.49323 24.4533 9.81815
1 9.06201 25.2378 10.6103
1 9.85571 24.4441 10.6103
1 9.87406 25.2414 9.79598
1 9.07107 24.4446 9.83147
1 10.6494 25.2378 10.6103
1 11.4431 24.4441 10.6103
1 11.4604 25.2042 9.80928
1 10.6552 24.4254 9.82029
1 12.2368 25.2378 10.6103
1 13.0305 24.4441 10.6103
1 13.0548 25.2257 9.818
1 12.2719 24.4295 9.82271
1 13.8242 25.2378 10.6103
1 14.6179 24.4441 10.6103
1 14.6363 25.2366 9.8085
1 13.8172 24.4155 9.80938
1 15.4116 25.2378 10.6103
1 16.2053 24.4441 10.6103
1 16.1908 25.2529 9.84268
1 15.3852 24.4558 9.80957
1 16.999 25.2378 10.6103
1 17.7927 24.4441 10.6103
1 17.7847 25.2494 9.82248
1 17.0038 24.4469 9.83098
1 18.5864 25.2378 10.6103
1 19.3801 24.4441 10.6103
1 19.3984 25.2204 9.8047
1 18.5774 24.4498 9.81068
1 20.1738 25.2378 10.6103
1 20.9675 24.4441 10.6103
1 20.9296 25.2306 9.82502
1 20.1782 24.4222 9.80454
1 21.7612 25.2378 10.6103
1 22.5549 24.4441 10.6103
1 22.5622 25.2176 9.78551
1 21.7547 24.4433 9.82084
1 23.3486 25.2378 10.6103
1 24.1423 24.4441 10.6103
1 24.1341 25.2483 9.80929
1 23.3572 24.4253 9.81424
1 24.936 25.2378 10.6103
1 25.7297 24.4441 10.6103
1 25.7396 25.266 9.80358
1 24.9499 24.4648 9.8144
1 26.5234 25.2378 10.6103
1 27.3171 24.4441 10.6103
1 27.3127 25.2353 9.8078
1 26.531 24.4612 9.80428
1 28.1108 25.2378 10.6103
1 28.9045 24.4441 10.6103
1 28.8828 25.2263 9.81621
1 28.1036 24.4314 9.81396
1 29.6982 25.2378 10.6103
1 0.491919 24.4441 10.6103
1 0.42089 25.252 9.78606
1 29.6669 24.4356 9.78907
1 1.125 23.6504 10.6103
1 1.9187 22.8567 10.6103
1 1.94189 23.6324 9.80919
1 1.16999 22.8687 9.78718
1 2.7124 23.6504 10.6103
1 3.5061 22.8567 10.6103
1 3.50216 23.6548 9.80984
1 2.71736 22.8536 9.82276
1 4.2998 23.6504 10.6103
1 5.0935 22.8567 10.6103
1 5.09725 23.6721 9.83039
1 4.33219 22.8589 9.8032
1 5.8872 23.6504 10.6103
1 6.6809 22.8567 10.6103
1 6.66988 23.6526 9.81782
1 5.90793 22.8528 9.826
1 7.4746 23.6504 10.6103
1 8.2683 22.8567 10.6103
1 8.2648 23.6497 9.822
1 7.48123 22.8557 9.82155
1 9.06201 23.6504 10.6103
1 9.85571 22.8567 10.6103
1 9.86643 23.645 9.8329
1 9.05786 22.8787 9.81232
1 10.6494 23.6504 10.6103
1 11.4431 22.8567 10.6103
1 11.4459 23.6534 9.82363
1 10.6517 22.8461 9.801
1 12.2368 23.6504 10.6103
1 13.0305 22.8567 10.6103
1 13.0422 23.6441 9.79259
1 12.2283 22.8754 9.80215
1 13.8242 23.6504 10.6103
1 14.6179 22.8567 10.6103
1 14.599 23.6511 9.83121
1 13.8325 22.8343 9.80405
1 15.4116 23.6504 10.6103
1 16.2053 22.8567 10.6103
1 16.2156 23.6624 9.80816
1 15.387 22.8715 9.8161
1 16.999 23.6504 10.6103
1 17.7927 22.8567 10.6103
1 17.7772 23.6434 9.82168
1 16.9785 22.8521 9.82966
1 18.5864 23.6504 10.6103
1 19.3801 22.8567 10.6103
1 19.3672 23.6439 9.80274
1 18.5738 22.8539 9.79765
1 20.1738 23.6504 10.6103
1 20.9675 22.8567 10.6103
1 20.9603 23.6463 9.80683
1 20.1574 22.8365 9.83862
1 21.7612 23.6504 10.6103
1 22.5549 22.8567 10.6103
1 22.577 23.647 9.81101
1 21.7248 22.8599 9.80356
1 23.3486 23.6504 10.6103
1 24.1423 22.8567 10.6103
1 24.1362 23.656 9.83023
1 23.3467 22.853 9.81566
1 24.936 23.6504 10.6103
1 25.7297 22.8567 10.6103
1 25.734 23.6659 9.80193
1 24.9396 22.8548 9.84627
1 26.5234 23.6504 10.6103
1 27.3171 22.8567 10.6103
1 27.3213 23.6582 9.7992
1 26.5046 22.8559 9.82835
1 28.1108 23.6504 10.6103
1 28.9045 22.8567 10.6103
1 28.8823 23.646 9.81494
1 28.1311 22.8478 9.83831
1 29.6982 23.6504 10.6103
1 0.491919 22.8567 10.6103
1 0.436848 23.645 9.80277
1 29.6873 22.85 9.84057
1 1.125 22.063 10.6103
1 1.9187 21.2693 10.6103
1 1.93273 22.0674 9.84511
1 1.19653 21.2748 9.77644
1 2.7124 22.063 10.6103
1 3.5061 21.2693 10.6103
1 3.50079 22.0863 9.83405
1 2.73361 21.2753 9.8022
1 4.2998 22.063 10.6103
1 5.0935 21.2693 10.6103
1 5.11961 22.0705 9.81716
1 4.30574 21.2643 9.82133
1 5.8872 22.063 10.6103
1 6.6809 21.2693 10.6103
1 6.68098 22.0531 9.81443
1 5.86297 21.2616 9.82889
1 7.4746 22.063 10.6103
1 8.2683 21.2693 10.6103
1 8.30238 22.0676 9.8372
1 7.48742 21.2584 9.80879
1 9.06201 22.063 10.6103
1 9.85571 21.2693 10.6103
1 9.83777 22.0426 9.81927
1 9.08281 21.249 9.8102
1 10.6494 22.063 10.6103
1 11.4431 21.2693 10.6103
1 11.439 22.0731 9.8147
1 10.6559 21.2542 9.80753
1 12.2368 22.063 10.6103
1 13.0305 21.2693 10.6103
1 13.0362 22.0729 9.82497
1 12.2223 21.2533 9.82199
1 13.8242 22.063 10.6103
1 14.6179 21.2693 10.6103
1 14.6277 22.0443 9.80398
1 13.821 21.277 9.82694
1 15.4116 22.063 10.6103
1 16.2053 21.2693 10.6103
1 16.2014 22.0632 9.81431
1 15.4235 21.2729 9.81283
1 16.999 22.063 10.6103
1 17.7927 21.2693 10.6103
1 17.7741 22.0701 9.82276
1 16.9963 21.2839 9.81826
1 18.5864 22.063 10.6103
1 19.3801 21.2693 10.6103
1 19.3811 22.0381 9.81541
1 18.554 21.24 9.82045
1 20.1738 22.063 10.6103
1 20.9675 21.2693 10.6103
1 20.9742 22.0697 9.82018
1 20.1525 21.2615 9.83622
1 21.7612 22.063 10.6103
1 22.5549 21.2693 10.6103
1 22.5527 22.0851 9.80325
1 21.7697 21.2529 9.81754
1 23.3486 22.063 10.6103
1 24.1423 21.2693 10.6103
1 24.1399 22.0465 9.83085
1 23.3556 21.284 9.82357
1 24.936 22.063 10.6103
1 25.7297 21.2693 10.6103
1 25.7219 22.0401 9.81564
1 24.9309 21.2882 9.81927
1 26.5234 22.063 10.6103
1 27.3171 21.2693 10.6103
1 27.318 22.0707 9.80186
1 26.5076 21.2429 9.82063
1 28.1108 22.063 10.6103
1 28.9045 21.2693 10.6103
1 28.8965 22.0591 9.81526
1 28.1051 21.2644 9.82623
1 29.6982 22.063 10.6103
1 0.491919 21.2693 10.6103
1 0.415654 22.0383 9.77932
1 29.659 21.271 9.80237
1 1.125 20.4756 10.6103
1 1.9187 19.6819 10.6103
1 1.93275 20.4596 9.81376
1 1.18223 19.697 9.78824
1 2.7124 20.4756 10.6103
1 3.5061 19.6819 10.6103
1 3.50942 20.4518 9.82448
1 2.73721 19.663 9.82197
1 4.2998 20.4756 10.6103
1 5.0935 19.6819 10.6103
1 5.10278 20.4608 9.81018
1 4.32468 19.6717 9.83094
1 5.8872 20.4756 10.6103
1 6.6809 19.6819 10.6103
1 6.68516 20.4661 9.81756
1 5.9094 19.6932 9.80986
1 7.4746 20.4756 10.6103
1 8.2683 19.6819 10.6103
1 8.2883 20.4582 9.81683
1 7.49084 19.6909 9.81223
1 9.06201 20.4756 10.6103
1 9.85571 19.6819 10.6103
1 9.85883 20.4711 9.81023
1 9.05734 19.6812 9.83207
1 10.6494 20.4756 10.6103
1 11.4431 19.6819 10.6103
1 11.4402 20.4771 9.84129
1 10.651 19.674 9.82787
1 12.2368 20.4756 10.6103
1 13.0305 19.6819 10.6103
1 13.0344 20.4759 9.81776
1 12.2396 19.7066 9.81616
1 13.8242 20.4756 10.6103
1 14.6179 19.6819 10.6103
1 14.6426 20.5008 9.81016
1 13.8106 19.6976 9.81547
1 15.4116 20.4756 10.6103
1 16.2053 19.6819 10.6103
1 16.2141 20.4712 9.7876
1 15.3923 19.6811 9.81159
1 16.999 20.4756 10.6103
1 17.7927 19.6819 10.6103
1 17.7816 20.446 9.82519
1 16.9943 19.6541 9.81273
1 18.5864 20.4756 10.6103
1 19.3801 19.6819 10.6103
1 19.3917 20.4747 9.81099
1 18.58 19.6831 9.79766
1 20.1738 20.4756 10.6103
1 20.9675 19.6819 10.6103
1 20.9552 20.4756 9.84329
1 20.1659 19.6768 9.82358
1 21.7612 20.4756 10.6103
1 22.5549 19.6819 10.6103
1 22.5594 20.4521 9.80796
1 21.7419 19.6936 9.8194
1 23.3486 20.4756 10.6103
1 24.1423 19.6819 10.6103
1 24.1353 20.481 9.8293
1 23.3602 19.6881 9.81572
1 24.936 20.4756 10.6103
1 25.7297 19.6819 10.6103
1 25.7256 20.4787 9.81722
1 24.9325 19.6957 9.81794
1 26.5234 20.4756 10.6103
1 27.3171 19.6819 10.6103
1 27.3072 20.4828 9.80919
1 26.5186 19.6659 9.83924
1 28.1108 20.4756 10.6103
1 28.9045 19.6819 10.6103
1 28.8822 20.487 9.81515
1 28.0977 19.6962 9.81267
1 29.6982 20.4756 10.6103
1 0.491919 19.6819 10.6103
1 0.417513 20.5031 9.78597
1 29.6658 19.6926 9.79087
1 1.125 18.8882 10.6103
1 1.9187 18.0945 10.6103
1 1.91765 18.8893 9.80228
1 1.19039 18.1008 9.76485
1 2.7124 18.8882 10.6103
1 3.5061 18.0945 10.6103
1 3.54329 18.8959 9.82025
1 2.74839 18.1233 9.8362
1 4.2998 18.8882 10.6103
1 5.0935 18.0945 10.6103
1 5.10781 18.8766 9.83518
1 4.32328 18.0938 9.81418
1 5.8872 18.8882 10.6103
1 6.6809 18.0945 10.6103
1 6.68301 18.9162 9.80941
1 5.88923 18.1126 9.82476
1 7.4746 18.8882 10.6103
1 8.2683 18.0945 10.6103
1 8.28892 18.8876 9.82091
1 7.49209 18.125 9.81441
1 9.06201 18.8882 10.6103
1 9.85571 18.0945 10.6103
1 9.82357 18.9031 9.84385
1 9.0565 18.0763 9.80433
1 10.6494 18.8882 10.6103
1 11.4431 18.0945 10.6103
1 11.4554 18.8855 9.85252
1 10.6637 18.1175 9.83821
1 12.2368 18.8882 10.6103
1 13.0305 18.0945 10.6103
1 13.0457 18.8743 9.82209
1 12.2359 18.0949 9.81352
1 13.8242 18.8882 10.6103
1 14.6179 18.0945 10.6103
1 14.6573 18.8915 9.7717
1 13.8244 18.0988 9.82658
1 15.4116 18.8882 10.6103
1 16.2053 18.0945 10.6103
1 16.2174 18.8838 9.79774
1 15.4095 18.0844 9.78274
1 16.999 18.8882 10.6103
1 17.7927 18.0945 10.6103
1 17.8061 18.8695 9.79823
1 16.9876 18.0915 9.77988
1 18.5864 18.8882 10.6103
1 19.3801 18.0945 10.6103
1 19.3668 18.8914 9.81571
1 18.5737 18.1134 9.79376
1 20.1738 18.8882 10.6103
1 20.9675 18.0945 10.6103
1 20.9714 18.8835 9.8328
1 20.1827 18.0846 9.82321
1 21.7612 18.8882 10.6103
1 22.5549 18.0945 10.6103
1 22.5365 18.8752 9.80823
1 21.7225 18.0839 9.8244
1 23.3486 18.8882 10.6103
1 24.1423 18.0945 10.6103
1 24.1481 18.8909 9.78839
1 23.3478 18.0966 9.81149
1 24.936 18.8882 10.6103
1 25.7297 18.0945 10.6103
1 25.7334 18.9016 9.81159
1 24.9271 18.0836 9.82729
1 26.5234 18.8882 10.6103
1 27.3171 18.0945 10.6103
1 27.3077 18.879 9.8107
1 26.5206 18.0895 9.82025
1 28.1108 18.8882 10.6103
1 28.9045 18.0945 10.6103
1 28.9192 18.8968 9.81501
1 28.127 18.1214 9.82028
1 29.6982 18.8882 10.6103
1 0.491919 18.0945 10.6103
1 0.435703 18.877 9.77651
1 29.6527 18.0793 9.8205
1 1.125 17.3008 10.6103
1 1.9187 16.5071 10.6103
1 1.97687 17.322 9.80581
1 1.20472 16.5272 9.80144
1 2.7124 17.3008 10.6103
1 3.5061 16.5071 10.6103
1 3.49967 17.3072 9.81865
1 2.74534 16.4911 9.79888
1 4.2998 17.3008 10.6103
1 5.0935 16.5071 10.6103
1 5.10348 17.315 9.84847
1 4.2938 16.5083 9.83316
1 5.8872 17.3008 10.6103
1 6.6809 16.5071 10.6103
1 6.69517 17.3281 9.80761
1 5.90158 16.5208 9.82002
1 7.4746 17.3008 10.6103
1 8.2683 16.5071 10.6103
1 8.2604 17.3154 9.82344
1 7.47836 16.5236 9.81551
1 9.06201 17.3008 10.6103
1 9.85571 16.5071 10.6103
1 9.84337 17.3243 9.81947
1 9.07494 16.5313 9.80613
1 10.6494 17.3008 10.6103
1 11.4431 16.5071 10.6103
1 11.4489 17.3052 9.82292
1 10.633 16.5238 9.83238
1 12.2368 17.3008 10.6103
1 13.0305 16.5071 10.6103
1 13.0292 17.2913 9.81285
1 12.2288 16.5145 9.82326
1 13.8242 17.3008 10.6103
1 14.6179 16.5071 10.6103
1 14.6264 17.3232 9.83179
1 13.8311 16.5078 9.82238
1 15.4116 17.3008 10.6103
1 16.2053 16.5071 10.6103
1 16.2001 17.3058 9.8105
1 15.4342 16.4972 9.81276
1 16.999 17.3008 10.6103
1 17.7927 16.5071 10.6103
1 17.8125 17.2835 9.8153
1 16.9808 16.5096 9.82362
1 18.5864 17.3008 10.6103
1 19.3801 16.5071 10.6103
1 19.3558 17.3051 9.79858
1 18.5895 16.4948 9.79441
1 20.1738 17.3008 10.6103
1 20.9675 16.5071 10.6103
1 20.9358 17.2922 9.80789
1 20.1754 16.5081 9.80225
1 21.7612 17.3008 10.6103
1 22.5549 16.5071 10.6103
1 22.5595 17.2886 9.82874
1 21.7538 16.5239 9.82707
1 23.3486 17.3008 10.6103
1 24.1423 16.5071 10.6103
1 24.1252 17.3039 9.8321
1 23.353 16.4998 9.82192
1 24.936 17.3008 10.6103
1 25.7297 16.5071 10.6103
1 25.7454 17.2751 9.81392
1 24.9093 16.523 9.81111
1 26.5234 17.3008 10.6103
1 27.3171 16.5071 10.6103
1 27.3372 17.3121 9.81744
1 26.5754 16.49 9.82331
1 28.1108 17.3008 10.6103
1 28.9045 16.5071 10.6103
1 28.8945 17.2957 9.83422
1 28.105 16.505 9.8186
1 29.6982 17.3008 10.6103
1 0.491919 16.5071 10.6103
1 0.426039 17.3164 9.77073
1 29.6755 16.5116 9.80673
1 1.125 15.7134 10.6103
1 1.9187 14.9197 10.6103
1 1.94394 15.7346 9.82143
1 1.20147 14.9384 9.76647
1 2.7124 15.7134 10.6103
1 3.5061 14.9197 10.6103
1 3.52498 15.7044 9.81933
1 2.73111 14.9251 9.80585
1 4.2998 15.7134 10.6103
1 5.0935 14.9197 10.6103
1 5.10996 15.708 9.80742
1 4.29872 14.8957 9.84083
1 5.8872 15.7134 10.6103
1 6.6809 14.9197 10.6103
1 6.67398 15.7247 9.81451
1 5.90042 14.9135 9.80263
1 7.4746 15.7134 10.6103
1 8.2683 14.9197 10.6103
1 8.25249 15.7267 9.80224
1 7.48093 14.9036 9.81814
1 9.06201 15.7134 10.6103
1 9.85571 14.9197 10.6103
1 9.83524 15.7316 9.79613
1 9.05599 14.9114 9.80314
1 10.6494 15.7134 10.6103
1 11.4431 14.9197 10.6103
1 11.4203 15.7028 9.82519
1 10.6504 14.9086 9.82308
1 12.2368 15.7134 10.6103
1 13.0305 14.9197 10.6103
1 13.015 15.7066 9.81355
1 12.2292 14.912 9.82334
1 13.8242 15.7134 10.6103
1 14.6179 14.9197 10.6103
1 14.6289 15.677 9.82069
1 13.822 14.8912 9.82225
1 15.4116 15.7134 10.6103
1 16.2053 14.9197 10.6103
1 16.2168 15.7151 9.83413
1 15.4187 14.9455 9.82353
1 16.999 15.7134 10.6103
1 17.7927 14.9197 10.6103
1 17.8225 15.728 9.80934
1 17.0112 14.9301 9.82423
1 18.5864 15.7134 10.6103
1 19.3801 14.9197 10.6103
1 19.3913 15.7108 9.81142
1 18.5971 14.9069 9.83196
1 20.1738 15.7134 10.6103
1 20.9675 14.9197 10.6103
1 20.9754 15.726 9.82566
1 20.1609 14.93 9.82684
1 21.7612 15.7134 10.6103
1 22.5549 14.9197 10.6103
1 22.5582 15.7106 9.80418
1 21.7565 14.9074 9.81579
1 23.3486 15.7134 10.6103
1 24.1423 14.9197 10.6103
1 24.1207 15.7127 9.84117
1 23.3325 14.9019 9.84007
1 24.936 15.7134 10.6103
1 25.7297 14.9197 10.6103
1 25.732 15.725 9.82545
1 24.931 14.9225 9.82105
1 26.5234 15.7134 10.6103
1 27.3171 14.9197 10.6103
1 27.3158 15.6722 9.79165
1 26.535 14.8965 9.81282
1 28.1108 15.7134 10.6103
1 28.9045 14.9197 10.6103
1 28.9009 15.6965 9.79127
1 28.1103 14.909 9.80784
1 29.6982 15.7134 10.6103
1 0.491919 14.9197 10.6103
1 0.416251 15.7309 9.77984
1 29.6691 14.9333 9.81593
1 1.125 14.126 10.6103
1 1.9187 13.3323 10.6103
1 1.95379 14.1253 9.79551
1 1.20333 13.3533 9.77907
1 2.7124 14.126 10.6103
1 3.5061 13.3323 10.6103
1 3.49735 14.1218 9.80499
1 2.71607 13.3368 9.80862
1 4.2998 14.126 10.6103
1 5.0935 13.3323 10.6103
1 5.11061 14.1046 9.81258
1 4.29346 13.3631 9.79981
1 5.8872 14.126 10.6103
1 6.6809 13.3323 10.6103
1 6.69017 14.1176 9.80663
1 5.9037 13.3305 9.81158
1 7.4746 14.126 10.6103
1 8.2683 13.3323 10.6103
1 8.2664 14.127 9.81077
1 7.47262 13.3397 9.79079
1 9.06201 14.126 10.6103
1 9.85571 13.3323 10.6103
1 9.85363 14.1116 9.80689
1 9.06893 13.3315 9.83112
1 10.6494 14.126 10.6103
1 11.4431 13.3323 10.6103
1 11.4634 14.1269 9.80939
1 10.6559 13.3361 9.81497
1 12.2368 14.126 10.6103
1 13.0305 13.3323 10.6103
1 13.0044 14.1297 9.80798
1 12.2376 13.3194 9.81768
1 13.8242 14.126 10.6103
1 14.6179 13.3323 10.6103
1 14.6433 14.1302 9.81568
1 13.8408 13.3471 9.82897
1 15.4116 14.126 10.6103
1 16.2053 13.3323 10.6103
1 16.2061 14.1168 9.81253
1 15.4283 13.3485 9.80611
1 16.999 14.126 10.6103
1 17.7927 13.3323 10.6103
1 17.7848 14.1275 9.81303
1 16.9932 13.3324 9.84165
1 18.5864 14.126 10.6103
1 19.3801 13.3323 10.6103
1 19.3764 14.1252 9.82602
1 18.5994 13.3292 9.80643
1 20.1738 14.126 10.6103
1 20.9675 13.3323 10.6103
1 20.9716 14.1404 9.81147
1 20.1867 13.313 9.81597
1 21.7612 14.126 10.6103
1 22.5549 13.3323 10.6103
1 22.5483 14.1433 9.8214
1 21.7533 13.3458 9.7991
1 23.3486 14.126 10.6103
1 24.1423 13.3323 10.6103
1 24.1614 14.1135 9.82869
1 23.3346 13.3537 9.80126
1 24.936 14.126 10.6103
1 25.7297 13.3323 10.6103
1 25.7491 14.1343 9.81568
1 24.915 13.3303 9.81777
1 26.5234 14.126 10.6103
1 27.3171 13.3323 10.6103
1 27.3116 14.1139 9.7988
1 26.5242 13.3228 9.81498
1 28.1108 14.126 10.6103
1 28.9045 13.3323 10.6103
1 28.8828 14.1354 9.81649
1 28.0824 13.3148 9.79676
1 29.6982 14.126 10.6103
1 0.491919 13.3323 10.6103
1 0.436883 14.1205 9.77054
1 29.6822 13.3445 9.83638
1 1.125 12.5386 10.6103
1 1.9187 11.7449 10.6103
1 1.94857 12.526 9.77658
1 1.17485 11.7452 9.79223
1 2.7124 12.5386 10.6103
1 3.5061 11.7449 10.6103
1 3.51309 12.5381 9.81314
1 2.73191 11.7361 9.79709
1 4.2998 12.5386 10.6103
1 5.0935 11.7449 10.6103
1 5.07919 12.533 9.82506
1 4.29601 11.7353 9.83428
1 5.8872 12.5386 10.6103
1 6.6809 11.7449 10.6103
1 6.6906 12.5187 9.81533
1 5.90221 11.7343 9.81924
1 7.4746 12.5386 10.6103
1 8.2683 11.7449 10.6103
1 8.30673 12.5453 9.80304
1 7.49616 11.7448 9.79792
1 9.06201 12.5386 10.6103
1 9.85571 11.7449 10.6103
1 9.85215 12.5337 9.79317
1 9.08188 11.7501 9.80639
1 10.6494 12.5386 10.6103
1 11.4431 11.7449 10.6103
1 11.4302 12.5366 9.84405
1 10.6497 11.761 9.83063
1 12.2368 12.5386 10.6103
1 13.0305 11.7449 10.6103
1 13.046 12.5304 9.80624
1 12.252 11.7411 9.83045
1 13.8242 12.5386 10.6103
1 14.6179 11.7449 10.6103
1 14.6145 12.5413 9.82806
1 13.8288 11.7148 9.81907
1 15.4116 12.5386 10.6103
1 16.2053 11.7449 10.6103
1 16.1965 12.5487 9.8194
1 15.4187 11.7335 9.83481
1 16.999 12.5386 10.6103
1 17.7927 11.7449 10.6103
1 17.8141 12.5288 9.81929
1 17.013 11.7387 9.83774
1 18.5864 12.5386 10.6103
1 19.3801 11.7449 10.6103
1 19.3994 12.5242 9.80642
1 18.5973 11.7398 9.81225
1 20.1738 12.5386 10.6103
1 20.9675 11.7449 10.6103
1 20.9797 12.5076 9.81488
1 20.1873 11.7404 9.80285
1 21.7612 12.5386 10.6103
1 22.5549 11.7449 10.6103
1 22.5422 12.5414 9.80541
1 21.7875 11.7416 9.80748
1 23.3486 12.5386 10.6103
1 24.1423 11.7449 10.6103
1 24.1035 12.5413 9.83153
1 23.3314 11.7433 9.80691
1 24.936 12.5386 10.6103
1 25.7297 11.7449 10.6103
1 25.6978 12.5366 9.8105
1 24.9224 11.7614 9.82495
1 26.5234 12.5386 10.6103
1 27.3171 11.7449 10.6103
1 27.302 12.5354 9.81982
1 26.5218 11.7467 9.81482
1 28.1108 12.5386 10.6103
1 28.9045 11.7449 10.6103
1 28.8706 12.5509 9.79861
1 28.101 11.7691 9.82293
1 29.6982 12.5386 10.6103
1 0.491919 11.7449 10.6103
1 0.437854 12.5395 9.7805
1 29.6674 11.776 9.81043
1 1.125 10.9512 10.6103
1 1.9187 10.1575 10.6103
1 1.91656 10.9494 9.81528
1 1.18923 10.1625 9.78739
1 2.7124 10.9512 10.6103
1 3.5061 10.1575 10.6103
1 3.52859 10.8996 9.81522
1 2.72366 10.1399 9.79866
1 4.2998 10.9512 10.6103
1 5.0935 10.1575 10.6103
1 5.10893 10.9332 9.81781
1 4.32194 10.1517 9.8315
1 5.8872 10.9512 10.6103
1 6.6809 10.1575 10.6103
1 6.69668 10.9351 9.8314
1 5.89138 10.163 9.82698
1 7.4746 10.9512 10.6103
1 8.2683 10.1575 10.6103
1 8.28004 10.9466 9.8201
1 7.5003 10.1437 9.79713
1 9.06201 10.9512 10.6103
1 9.85571 10.1575 10.6103
1 9.84672 10.9614 9.83081
1 9.07242 10.1501 9.81097
1 10.6494 10.9512 10.6103
1 11.4431 10.1575 10.6103
1 11.4419 10.958 9.81709
1 10.6547 10.1767 9.8199
1 12.2368 10.9512 10.6103
1 13.0305 10.1575 10.6103
1 13.0228 10.936 9.79243
1 12.2242 10.1494 9.81118
1 13.8242 10.9512 10.6103
1 14.6179 10.1575 10.6103
1 14.6073 10.9469 9.81774
1 13.817 10.1614 9.80025
1 15.4116 10.9512 10.6103
1 16.2053 10.1575 10.6103
1 16.2223 10.9612 9.83931
1 15.4207 10.1442 9.83519
1 16.999 10.9512 10.6103
1 17.7927 10.1575 10.6103
1 17.8072 10.941 9.82333
1 17.0264 10.1425 9.79861
1 18.5864 10.9512 10.6103
1 19.3801 10.1575 10.6103
1 19.37 10.9533 9.83092
1 18.586 10.1576 9.80271
1 20.1738 10.9512 10.6103
1 20.9675 10.1575 10.6103
1 20.9882 10.9478 9.83944
1 20.1961 10.1843 9.81082
1 21.7612 10.9512 10.6103
1 22.5549 10.1575 10.6103
1 22.582 10.9595 9.80709
1 21.7825 10.1625 9.81117
1 23.3486 10.9512 10.6103
1 24.1423 10.1575 10.6103
1 24.1519 10.9476 9.82317
1 23.3414 10.1634 9.82546
1 24.936 10.9512 10.6103
1 25.7297 10.1575 10.6103
1 25.7317 10.9643 9.84355
1 24.9371 10.1672 9.81592
1 26.5234 10.9512 10.6103
1 27.3171 10.1575 10.6103
1 27.3155 10.9535 9.82891
1 26.5265 10.1648 9.79251
1 28.1108 10.9512 10.6103
1 28.9045 10.1575 10.6103
1 28.9023 10.9458 9.80527
1 28.1279 10.1508 9.8175
1 29.6982 10.9512 10.6103
1 0.491919 10.1575 10.6103
1 0.398088 10.9309 9.7847
1 29.6422 10.1409 9.80394
1 1.125 9.36379 10.6103
1 1.9187 8.57009 10.6103
1 1.94254 9.34746 9.7903
1 1.17321 8.56114 9.76906
1 2.7124 9.36379 10.6103
1 3.5061 8.57009 10.6103
1 3.50028 9.3706 9.79549
1 2.72014 8.55737 9.80512
1 4.2998 9.36379 10.6103
1 5.0935 8.57009 10.6103
1 5.0994 9.37633 9.82267
1 4.313 8.57181 9.82246
1 5.8872 9.36379 10.6103
1 6.6809 8.57009 10.6103
1 6.66951 9.36442 9.80686
1 5.90144 8.57315 9.81412
1 7.4746 9.36379 10.6103
1 8.2683 8.57009 10.6103
1 8.2731 9.35573 9.82214
1 7.47843 8.58547 9.8134
1 9.06201 9.36379 10.6103
1 9.85571 8.57009 10.6103
1 9.85337 9.3315 9.84906
1 9.04399 8.54926 9.79737
1 10.6494 9.36379 10.6103
1 11.4431 8.57009 10.6103
1 11.4343 9.3687 9.83745
1 10.6373 8.57836 9.82891
1 12.2368 9.36379 10.6103
1 13.0305 8.57009 10.6103
1 13.0282 9.3603 9.81072
1 12.2254 8.58136 9.83444
1 13.8242 9.36379 10.6103
1 14.6179 8.57009 10.6103
1 14.6058 9.33315 9.83284
1 13.8234 8.58915 9.828
1 15.4116 9.36379 10.6103
1 16.2053 8.57009 10.6103
1 16.2392 9.34929 9.80778
1 15.4214 8.56684 9.82625
1 16.999 9.36379 10.6103
1 17.7927 8.57009 10.6103
1 17.8055 9.3702 9.81696
1 17.0001 8.56954 9.83756
1 18.5864 9.36379 10.6103
1 19.3801 8.57009 10.6103
1 19.4099 9.36687 9.8221
1 18.5991 8.58526 9.7957
1 20.1738 9.36379 10.6103
1 20.9675 8.57009 10.6103
1 20.9635 9.36733 9.80532
1 20.1936 8.5693 9.84589
1 21.7612 9.36379 10.6103
1 22.5549 8.57009 10.6103
1 22.5636 9.36865 9.83547
1 21.7579 8.55634 9.81664
1 23.3486 9.36379 10.6103
1 24.1423 8.57009 10.6103
1 24.1406 9.36295 9.82321
1 23.3435 8.5676 9.84351
1 24.936 9.36379 10.6103
1 25.7297 8.57009 10.6103
1 25.7297 9.38581 9.82142
1 24.9202 8.58995 9.80973
1 26.5234 9.36379 10.6103
1 27.3171 8.57009 10.6103
1 27.3009 9.37239 9.79604
1 26.5163 8.57182 9.81551
1 28.1108 9.36379 10.6103
1 28.9045 8.57009 10.6103
1 28.8998 9.34388 9.81143
1 28.0764 8.56405 9.83231
1 29.6982 9.36379 10.6103
1 0.491919 8.57009 10.6103
1 0.417774 9.36806 9.78418
1 29.6797 8.57477 9.83243
1 1.125 7.77639 10.6103
1 1.9187 6.98268 10.6103
1 1.96033 7.76875 9.81136
1 1.17848 7.01662 9.80134
1 2.7124 7.77639 10.6103
1 3.5061 6.98268 10.6103
1 3.52267 7.76101 9.80017
1 2.7238 7.0059 9.80824
1 4.2998 7.77639 10.6103
1 5.0935 6.98268 10.6103
1 5.11645 7.77082 9.82537
1 4.32048 6.99205 9.79482
1 5.8872 7.77639 10.6103
1 6.6809 6.98268 10.6103
1 6.70663 7.77172 9.82189
1 5.88975 6.98336 9.82494
1 7.4746 7.77639 10.6103
1 8.2683 6.98268 10.6103
1 8.27404 7.76993 9.79358
1 7.47493 6.9707 9.81698
1 9.06201 7.77639 10.6103
1 9.85571 6.98268 10.6103
1 9.84831 7.79299 9.8336
1 9.06373 6.98918 9.82279
1 10.6494 7.77639 10.6103
1 11.4431 6.98268 10.6103
1 11.4455 7.77583 9.83903
1 10.6504 6.97577 9.8313
1 12.2368 7.77639 10.6103
1 13.0305 6.98268 10.6103
1 13.021 7.78766 9.83612
1 12.212 6.98901 9.79124
1 13.8242 7.77639 10.6103
1 14.6179 6.98268 10.6103
1 14.6062 7.75651 9.81375
1 13.788 6.95306 9.82639
1 15.4116 7.77639 10.6103
1 16.2053 6.98268 10.6103
1 16.2164 7.76432 9.80642
1 15.4198 6.97306 9.82724
1 16.999 7.77639 10.6103
1 17.7927 6.98268 10.6103
1 17.8032 7.80397 9.78318
1 17.0324 7.01288 9.81794
1 18.5864 7.77639 10.6103
1 19.3801 6.98268 10.6103
1 19.3928 7.7969 9.82251
1 18.5856 6.99197 9.82719
1 20.1738 7.77639 10.6103
1 20.9675 6.98268 10.6103
1 20.971 7.76452 9.83952
1 20.1774 7.00822 9.84607
1 21.7612 7.77639 10.6103
1 22.5549 6.98268 10.6103
1 22.5646 7.7629 9.82869
1 21.7733 6.99251 9.7845
1 23.3486 7.77639 10.6103
1 24.1423 6.98268 10.6103
1 24.1334 7.78264 9.802
1 23.366 6.95851 9.82692
1 24.936 7.77639 10.6103
1 25.7297 6.98268 10.6103
1 25.7176 7.81269 9.81178
1 24.9498 6.983 9.83209
1 26.5234 7.77639 10.6103
1 27.3171 6.98268 10.6103
1 27.3098 7.75608 9.81301
1 26.4918 6.96736 9.79879
1 28.1108 7.77639 10.6103
1 28.9045 6.98268 10.6103
1 28.8811 7.78442 9.81935
1 28.1084 6.98973 9.79533
1 29.6982 7.77639 10.6103
1 0.491919 6.98268 10.6103
1 0.413973 7.77865 9.7766
1 29.6723 6.98776 9.80035
1 1.125 6.18898 10.6103
1 1.9187 5.39528 10.6103
1 1.94603 6.17127 9.80343
1 1.16255 5.39004 9.80197
1 2.7124 6.18898 10.6103
1 3.5061 5.39528 10.6103
1 3.54204 6.19711 9.83898
1 2.73385 5.41021 9.82486
1 4.2998 6.18898 10.6103
1 5.0935 5.39528 10.6103
1 5.1082 6.17878 9.81501
1 4.29183 5.40046 9.83648
1 5.8872 6.18898 10.6103
1 6.6809 5.39528 10.6103
1 6.68577 6.19046 9.7986
1 5.89543 5.38307 9.82185
1 7.4746 6.18898 10.6103
1 8.2683 5.39528 10.6103
1 8.23935 6.1926 9.83021
1 7.44934 5.42431 9.85822
1 9.06201 6.18898 10.6103
1 9.85571 5.39528 10.6103
1 9.85805 6.17467 9.82872
1 9.06299 5.40282 9.83324
1 10.6494 6.18898 10.6103
1 11.4431 5.39528 10.6103