9376
Atoms. Timestep: 4000000
1 15 3.55271e-15 10.7464
1 15.7937 29.2063 10.7464
1 15.8488 29.9205 9.91981
1 15.0746 29.1686 9.91693
1 16.5874 3.55271e-15 10.7464
1 17.3811 29.2063 10.7464
1 17.3849 29.9076 9.92406
1 16.6167 29.1653 9.94713
1 18.1748 3.55271e-15 10.7464
1 18.9685 29.2063 10.7464
1 18.9597 29.9353 9.91124
1 18.1994 29.1426 9.95455
1 19.7622 3.55271e-15 10.7464
1 20.5559 29.2063 10.7464
1 20.572 29.9232 9.91682
1 19.7485 29.176 9.94202
1 21.3496 3.55271e-15 10.7464
1 22.1433 29.2063 10.7464
1 22.1608 29.9481 9.94713
1 21.382 29.1755 9.93802
1 22.937 3.55271e-15 10.7464
1 23.7307 29.2063 10.7464
1 23.7288 29.9144 9.93133
1 22.9548 29.1623 9.95215
1 24.5244 3.55271e-15 10.7464
1 25.3181 29.2063 10.7464
1 25.3091 29.9344 9.92146
1 24.5256 29.1674 9.92717
1 26.1118 3.55271e-15 10.7464
1 26.9055 29.2063 10.7464
1 26.8714 29.9461 9.91507
1 26.0909 29.18 9.96197
1 27.6992 3.55271e-15 10.7464
1 28.4929 29.2063 10.7464
1 28.4935 29.9116 9.87558
1 27.6821 29.1729 9.95175
1 29.2866 3.55271e-15 10.7464
1 0.08031 29.2063 10.7464
1 0.0978651 29.9379 9.92211
1 29.29 29.1968 9.93199
1 0.874011 3.55271e-15 10.7464
1 1.66771 29.2063 10.7464
1 1.691 29.9453 9.92702
1 0.873846 29.2174 9.96074
1 2.46141 3.55271e-15 10.7464
1 3.25511 29.2063 10.7464
1 3.25722 29.9153 9.91395
1 2.47186 29.1706 9.96346
1 4.04881 3.55271e-15 10.7464
1 4.84251 29.2063 10.7464
1 4.84138 29.926 9.90813
1 4.05755 29.1907 9.94232
1 5.63621 3.55271e-15 10.7464
1 6.42991 29.2063 10.7464
1 6.43086 29.9447 9.92256
1 5.64363 29.1838 9.94962
1 7.22361 3.55271e-15 10.7464
1 8.01732 29.2063 10.7464
1 7.99294 29.9305 9.93679
1 7.21654 29.1541 9.96025
1 8.81102 3.55271e-15 10.7464
1 9.60472 29.2063 10.7464
1 9.59553 29.9207 9.91343
1 8.77937 29.1559 9.96381
1 10.3984 3.55271e-15 10.7464
1 11.1921 29.2063 10.7464
1 11.1935 29.9192 9.92366
1 10.398 29.2046 9.95322
1 11.9858 3.55271e-15 10.7464
1 12.7795 29.2063 10.7464
1 12.7593 29.9576 9.90838
1 11.9879 29.1907 9.91499
1 13.5732 3.55271e-15 10.7464
1 14.3669 29.2063 10.7464
1 14.2845 29.9057 9.89969
1 13.5281 29.1882 9.948
1 15 28.4126 10.7464
1 15.7937 27.6189 10.7464
1 15.8037 28.3959 9.96839
1 15.0716 27.5919 9.89886
1 16.5874 28.4126 10.7464
1 17.3811 27.6189 10.7464
1 17.3983 28.3967 9.95314
1 16.616 27.6074 9.9683
1 18.1748 28.4126 10.7464
1 18.9685 27.6189 10.7464
1 18.9706 28.3738 9.93568
1 18.1731 27.5744 9.9409
1 19.7622 28.4126 10.7464
1 20.5559 27.6189 10.7464
1 20.5393 28.3957 9.92149
1 19.7573 27.5822 9.93048
1 21.3496 28.4126 10.7464
1 22.1433 27.6189 10.7464
1 22.1567 28.3963 9.95593
1 21.3319 27.5978 9.93922
1 22.937 28.4126 10.7464
1 23.7307 27.6189 10.7464
1 23.7334 28.4077 9.97371
1 22.9459 27.6159 9.95733
1 24.5244 28.4126 10.7464
1 25.3181 27.6189 10.7464
1 25.3236 28.3923 9.9767
1 24.5119 27.6026 9.96733
1 26.1118 28.4126 10.7464
1 26.9055 27.6189 10.7464
1 26.9119 28.3894 9.94472
1 26.1199 27.6249 9.9529
1 27.6992 28.4126 10.7464
1 28.4929 27.6189 10.7464
1 28.4947 28.4111 9.93691
1 27.7227 27.6178 9.95216
1 29.2866 28.4126 10.7464
1 0.08031 27.6189 10.7464
1 0.0673839 28.4237 9.93708
1 29.2928 27.6122 9.94348
1 0.874011 28.4126 10.7464
1 1.66771 27.6189 10.7464
1 1.6776 28.4068 9.97933
1 0.884404 27.606 9.95385
1 2.46141 28.4126 10.7464
1 3.25511 27.6189 10.7464
1 3.26594 28.397 9.94987
1 2.44141 27.6264 9.96953
1 4.04881 28.4126 10.7464
1 4.84251 27.6189 10.7464
1 4.83583 28.3891 9.96668
1 4.07513 27.5998 9.96385
1 5.63621 28.4126 10.7464
1 6.42991 27.6189 10.7464
1 6.39642 28.3992 9.95759
1 5.61868 27.6027 9.91596
1 7.22361 28.4126 10.7464
1 8.01732 27.6189 10.7464
1 7.97854 28.3766 9.94333
1 7.1884 27.5937 9.94371
1 8.81102 28.4126 10.7464
1 9.60472 27.6189 10.7464
1 9.60217 28.406 9.95776
1 8.80441 27.5956 9.96141
1 10.3984 28.4126 10.7464
1 11.1921 27.6189 10.7464
1 11.2028 28.3937 9.93668
1 10.3967 27.6096 9.94733
1 11.9858 28.4126 10.7464
1 12.7795 27.6189 10.7464
1 12.7497 28.3884 9.95212
1 11.9599 27.5755 9.95279
1 13.5732 28.4126 10.7464
1 14.3669 27.6189 10.7464
1 14.2905 28.4058 9.91987
1 13.529 27.6087 9.93425
1 15 26.8252 10.7464
1 15.7937 26.0315 10.7464
1 15.8264 26.8181 9.91319
1 15.0825 26.0233 9.90509
1 16.5874 26.8252 10.7464
1 17.3811 26.0315 10.7464
1 17.4155 26.8082 9.97357
1 16.618 26.0007 9.97971
1 18.1748 26.8252 10.7464
1 18.9685 26.0315 10.7464
1 18.9638 26.8099 9.9304
1 18.2012 25.9946 9.93336
1 19.7622 26.8252 10.7464
1 20.5559 26.0315 10.7464
1 20.5665 26.8103 9.94523
1 19.7586 26.0246 9.96439
1 21.3496 26.8252 10.7464
1 22.1433 26.0315 10.7464
1 22.1399 26.8228 9.92694
1 21.3668 26.0233 9.9762
1 22.937 26.8252 10.7464
1 23.7307 26.0315 10.7464
1 23.7073 26.8193 9.96421
1 22.932 26.0273 9.93131
1 24.5244 26.8252 10.7464
1 25.3181 26.0315 10.7464
1 25.3207 26.8174 9.957
1 24.5252 26.0365 9.95968
1 26.1118 26.8252 10.7464
1 26.9055 26.0315 10.7464
1 26.9309 26.8122 9.94857
1 26.1376 26.0306 9.95463
1 27.6992 26.8252 10.7464
1 28.4929 26.0315 10.7464
1 28.4896 26.803 9.94432
1 27.7156 26.0298 9.96174
1 29.2866 26.8252 10.7464
1 0.08031 26.0315 10.7464
1 0.0849016 26.822 9.9628
1 29.2917 26.0383 9.94247
1 0.874011 26.8252 10.7464
1 1.66771 26.0315 10.7464
1 1.65297 26.8268 9.94766
1 0.884479 26.0219 9.93348
1 2.46141 26.8252 10.7464
1 3.25511 26.0315 10.7464
1 3.2391 26.8442 9.95852
1 2.45949 26.0537 9.94482
1 4.04881 26.8252 10.7464
1 4.84251 26.0315 10.7464
1 4.84138 26.7981 9.94763
1 4.04172 26.0302 9.93872
1 5.63621 26.8252 10.7464
1 6.42991 26.0315 10.7464
1 6.41007 26.815 9.92689
1 5.64913 26.0419 9.92644
1 7.22361 26.8252 10.7464
1 8.01732 26.0315 10.7464
1 8.01804 26.8348 9.9664
1 7.21306 26.0539 9.97016
1 8.81102 26.8252 10.7464
1 9.60472 26.0315 10.7464
1 9.59767 26.8194 9.97157
1 8.80115 26.0253 9.97245
1 10.3984 26.8252 10.7464
1 11.1921 26.0315 10.7464
1 11.184 26.8124 9.96477
1 10.3885 26.0268 9.96241
1 11.9858 26.8252 10.7464
1 12.7795 26.0315 10.7464
1 12.7633 26.8093 9.97324
1 11.9468 26.0083 9.91935
1 13.5732 26.8252 10.7464
1 14.3669 26.0315 10.7464
1 14.2879 26.8029 9.94032
1 13.5281 26.0218 9.93589
1 15 25.2378 10.7464
1 15.7937 24.4441 10.7464
1 15.829 25.2119 9.94498
1 15.0726 24.4456 9.91487
1 16.5874 25.2378 10.7464
1 17.3811 24.4441 10.7464
1 17.3941 25.2301 9.93152
1 16.6012 24.4273 9.94066
1 18.1748 25.2378 10.7464
1 18.9685 24.4441 10.7464
1 18.9876 25.2141 9.93937
1 18.196 24.4263 9.95144
1 19.7622 25.2378 10.7464
1 20.5559 24.4441 10.7464
1 20.5628 25.2377 9.95996
1 19.7756 24.4479 9.94908
1 21.3496 25.2378 10.7464
1 22.1433 24.4441 10.7464
1 22.1773 25.231 9.972
1 21.3606 24.4413 9.96905
1 22.937 25.2378 10.7464
1 23.7307 24.4441 10.7464
1 23.7301 25.2246 9.94144
1 22.9372 24.427 9.94215
1 24.5244 25.2378 10.7464
1 25.3181 24.4441 10.7464
1 25.3394 25.2325 9.98019
1 24.5347 24.4047 9.95874
1 26.1118 25.2378 10.7464
1 26.9055 24.4441 10.7464
1 26.9222 25.2496 9.93783
1 26.1206 24.4471 9.96527
1 27.6992 25.2378 10.7464
1 28.4929 24.4441 10.7464
1 28.501 25.207 9.93827
1 27.7019 24.4407 9.94727
1 29.2866 25.2378 10.7464
1 0.08031 24.4441 10.7464
1 0.0820327 25.2324 9.9547
1 29.3152 24.415 9.97182
1 0.874011 25.2378 10.7464
1 1.66771 24.4441 10.7464
1 1.66879 25.2436 9.95167
1 0.896787 24.4406 9.93284
1 2.46141 25.2378 10.7464
1 3.25511 24.4441 10.7464
1 3.24887 25.2273 9.95171
1 2.46247 24.4434 9.93577
1 4.04881 25.2378 10.7464
1 4.84251 24.4441 10.7464
1 4.84075 25.2598 9.96695
1 4.03068 24.4339 9.94781
1 5.63621 25.2378 10.7464
1 6.42991 24.4441 10.7464
1 6.44771 25.2424 9.93811
1 5.63736 24.4518 9.93688
1 7.22361 25.2378 10.7464
1 8.01732 24.4441 10.7464
1 8.00122 25.2329 9.95485
1 7.22003 24.4561 9.94493
1 8.81102 25.2378 10.7464
1 9.60472 24.4441 10.7464
1 9.60747 25.2446 9.97056
1 8.79554 24.4417 9.96098
1 10.3984 25.2378 10.7464
1 11.1921 24.4441 10.7464
1 11.1915 25.2269 9.95268
1 10.3539 24.4221 9.95754
1 11.9858 25.2378 10.7464
1 12.7795 24.4441 10.7464
1 12.7675 25.264 9.97151
1 11.9878 24.4506 9.92787
1 13.5732 25.2378 10.7464
1 14.3669 24.4441 10.7464
1 14.3033 25.2364 9.9294
1 13.5229 24.4451 9.9333
1 15 23.6504 10.7464
1 15.7937 22.8567 10.7464
1 15.8059 23.6528 9.94414
1 15.0775 22.8466 9.92437
1 16.5874 23.6504 10.7464
1 17.3811 22.8567 10.7464
1 17.3945 23.6587 9.96082
1 16.6159 22.8731 9.96981
1 18.1748 23.6504 10.7464
1 18.9685 22.8567 10.7464
1 19.0118 23.6351 9.96983
1 18.1807 22.8669 9.95647
1 19.7622 23.6504 10.7464
1 20.5559 22.8567 10.7464
1 20.5426 23.6243 9.94944
1 19.7768 22.8456 9.9558
1 21.3496 23.6504 10.7464
1 22.1433 22.8567 10.7464
1 22.1421 23.6408 9.92706
1 21.3432 22.8701 9.95775
1 22.937 23.6504 10.7464
1 23.7307 22.8567 10.7464
1 23.7374 23.6586 9.95966
1 22.9229 22.8383 9.95924
1 24.5244 23.6504 10.7464
1 25.3181 22.8567 10.7464
1 25.3085 23.6279 9.95747
1 24.5202 22.8213 9.96728
1 26.1118 23.6504 10.7464
1 26.9055 22.8567 10.7464
1 26.9143 23.6707 9.94299
1 26.1271 22.8344 9.95908
1 27.6992 23.6504 10.7464
1 28.4929 22.8567 10.7464
1 28.4929 23.6351 9.93991
1 27.6985 22.8529 9.94997
1 29.2866 23.6504 10.7464
1 0.08031 22.8567 10.7464
1 0.0839208 23.6627 9.94657
1 29.2757 22.8575 9.94903
1 0.874011 23.6504 10.7464
1 1.66771 22.8567 10.7464
1 1.68195 23.6503 9.96146
1 0.894791 22.8671 9.93673
1 2.46141 23.6504 10.7464
1 3.25511 22.8567 10.7464
1 3.25033 23.6451 9.94059
1 2.47082 22.8517 9.96092
1 4.04881 23.6504 10.7464
1 4.84251 22.8567 10.7464
1 4.8255 23.6642 9.92511
1 4.03336 22.8653 9.95601
1 5.63621 23.6504 10.7464
1 6.42991 22.8567 10.7464
1 6.43239 23.6627 9.93404
1 5.6308 22.8414 9.96
1 7.22361 23.6504 10.7464
1 8.01732 22.8567 10.7464
1 8.00304 23.6511 9.95096
1 7.2173 22.8521 9.95886
1 8.81102 23.6504 10.7464
1 9.60472 22.8567 10.7464
1 9.58367 23.6378 9.94963
1 8.81352 22.8495 9.95381
1 10.3984 23.6504 10.7464
1 11.1921 22.8567 10.7464
1 11.1747 23.6693 9.96972
1 10.3831 22.8415 9.97302
1 11.9858 23.6504 10.7464
1 12.7795 22.8567 10.7464
1 12.7672 23.6543 9.94829
1 11.9657 22.8847 9.96163
1 13.5732 23.6504 10.7464
1 14.3669 22.8567 10.7464
1 14.3071 23.657 9.91335
1 13.5823 22.8615 9.94437
1 15 22.063 10.7464
1 15.7937 21.2693 10.7464
1 15.8129 22.0272 9.96242
1 15.059 21.2674 9.93185
1 16.5874 22.063 10.7464
1 17.3811 21.2693 10.7464
1 17.4131 22.0615 9.95532
1 16.6 21.2668 9.95721
1 18.1748 22.063 10.7464
1 18.9685 21.2693 10.7464
1 18.9813 22.0568 9.94527
1 18.1668 21.2476 9.9918
1 19.7622 22.063 10.7464
1 20.5559 21.2693 10.7464
1 20.5744 22.0446 9.95074
1 19.7742 21.2627 9.96093
1 21.3496 22.063 10.7464
1 22.1433 21.2693 10.7464
1 22.122 22.0894 9.94533
1 21.3345 21.2434 9.95919
1 22.937 22.063 10.7464
1 23.7307 21.2693 10.7464
1 23.7371 22.0682 9.94979
1 22.9555 21.2841 9.96478
1 24.5244 22.063 10.7464
1 25.3181 21.2693 10.7464
1 25.3333 22.0827 9.95443
1 24.5407 21.2812 9.95726
1 26.1118 22.063 10.7464
1 26.9055 21.2693 10.7464
1 26.8888 22.0502 9.94608
1 26.1196 21.2734 9.94758
1 27.6992 22.063 10.7464
1 28.4929 21.2693 10.7464
1 28.4994 22.0572 9.94461
1 27.7274 21.2585 9.92203
1 29.2866 22.063 10.7464
1 0.08031 21.2693 10.7464
1 0.0772259 22.0703 9.97621
1 29.2626 21.2738 9.97639
1 0.874011 22.063 10.7464
1 1.66771 21.2693 10.7464
1 1.6565 22.0635 9.93416
1 0.896354 21.2949 9.95835
1 2.46141 22.063 10.7464
1 3.25511 21.2693 10.7464
1 3.25876 22.0841 9.95927
1 2.45006 21.2863 9.93916
1 4.04881 22.063 10.7464
1 4.84251 21.2693 10.7464
1 4.82537 22.0627 9.95259
1 4.00714 21.2815 9.94348
1 5.63621 22.063 10.7464
1 6.42991 21.2693 10.7464
1 6.43358 22.0601 9.94411
1 5.63195 21.2488 9.94646
1 7.22361 22.063 10.7464
1 8.01732 21.2693 10.7464
1 8.00759 22.0611 9.95443
1 7.21701 21.2463 9.94598
1 8.81102 22.063 10.7464
1 9.60472 21.2693 10.7464
1 9.57427 22.046 9.95476
1 8.77613 21.2458 9.93103
1 10.3984 22.063 10.7464
1 11.1921 21.2693 10.7464
1 11.1647 22.0653 9.97317
1 10.3725 21.2648 9.97065
1 11.9858 22.063 10.7464
1 12.7795 21.2693 10.7464
1 12.7873 22.0599 9.95395
1 11.9741 21.2568 9.95086
1 13.5732 22.063 10.7464
1 14.3669 21.2693 10.7464
1 14.2861 22.0671 9.93034
1 13.537 21.2713 9.95895
1 15 20.4756 10.7464
1 15.7937 19.6819 10.7464
1 15.8176 20.4918 9.93827
1 15.0576 19.6809 9.91396
1 16.5874 20.4756 10.7464
1 17.3811 19.6819 10.7464
1 17.3811 20.4629 9.97456
1 16.5879 19.6871 9.9411
1 18.1748 20.4756 10.7464
1 18.9685 19.6819 10.7464
1 18.9641 20.4672 9.93512
1 18.1723 19.6806 9.94924
1 19.7622 20.4756 10.7464
1 20.5559 19.6819 10.7464
1 20.5462 20.4796 9.94082
1 19.739 19.6891 9.95015
1 21.3496 20.4756 10.7464
1 22.1433 19.6819 10.7464
1 22.1617 20.4557 9.96408
1 21.3461 19.6789 9.9406
1 22.937 20.4756 10.7464
1 23.7307 19.6819 10.7464
1 23.7369 20.4888 9.96222
1 22.9319 19.6749 9.96573
1 24.5244 20.4756 10.7464
1 25.3181 19.6819 10.7464
1 25.3102 20.5104 9.97852
1 24.5014 19.7047 9.95991
1 26.1118 20.4756 10.7464
1 26.9055 19.6819 10.7464
1 26.9069 20.4709 9.95683
1 26.0777 19.6818 9.97173
1 27.6992 20.4756 10.7464
1 28.4929 19.6819 10.7464
1 28.4833 20.4731 9.92917
1 27.7125 19.6957 9.94813
1 29.2866 20.4756 10.7464
1 0.08031 19.6819 10.7464
1 0.0551135 20.4774 9.94931
1 29.2586 19.6845 9.95087
1 0.874011 20.4756 10.7464
1 1.66771 19.6819 10.7464
1 1.66527 20.4895 9.94738
1 0.872258 19.6928 9.95375
1 2.46141 20.4756 10.7464
1 3.25511 19.6819 10.7464
1 3.23225 20.4937 9.94228
1 2.44577 19.7015 9.95615
1 4.04881 20.4756 10.7464
1 4.84251 19.6819 10.7464
1 4.84198 20.4739 9.96292
1 4.05243 19.6532 9.95622
1 5.63621 20.4756 10.7464
1 6.42991 19.6819 10.7464
1 6.43757 20.4715 9.96137
1 5.62239 19.6851 9.9532
1 7.22361 20.4756 10.7464
1 8.01732 19.6819 10.7464
1 8.04074 20.488 9.9453
1 7.2302 19.6908 9.93199
1 8.81102 20.4756 10.7464
1 9.60472 19.6819 10.7464
1 9.58895 20.4864 9.96722
1 8.81842 19.67 9.95103
1 10.3984 20.4756 10.7464
1 11.1921 19.6819 10.7464
1 11.1752 20.4873 9.95565
1 10.4017 19.6804 9.95308
1 11.9858 20.4756 10.7464
1 12.7795 19.6819 10.7464
1 12.7472 20.4609 9.95963
1 11.9559 19.6824 9.94467
1 13.5732 20.4756 10.7464
1 14.3669 19.6819 10.7464
1 14.2904 20.4937 9.91896
1 13.5612 19.6929 9.95062
1 15 18.8882 10.7464
1 15.7937 18.0945 10.7464
1 15.8081 18.9089 9.94808
1 15.0746 18.0871 9.91155
1 16.5874 18.8882 10.7464
1 17.3811 18.0945 10.7464
1 17.3752 18.9032 9.94082
1 16.5808 18.1277 9.96071
1 18.1748 18.8882 10.7464
1 18.9685 18.0945 10.7464
1 18.9865 18.8916 9.95565
1 18.1583 18.1025 9.94434
1 19.7622 18.8882 10.7464
1 20.5559 18.0945 10.7464
1 20.5513 18.8999 9.96218
1 19.7642 18.0747 9.94445
1 21.3496 18.8882 10.7464
1 22.1433 18.0945 10.7464
1 22.134 18.8916 9.95554
1 21.3537 18.105 9.94666
1 22.937 18.8882 10.7464
1 23.7307 18.0945 10.7464
1 23.7325 18.8776 9.95059
1 22.943 18.0808 9.97726
1 24.5244 18.8882 10.7464
1 25.3181 18.0945 10.7464
1 25.2851 18.8948 9.94462
1 24.5254 18.0862 9.95573
1 26.1118 18.8882 10.7464
1 26.9055 18.0945 10.7464
1 26.8971 18.9243 9.9357
1 26.1211 18.1022 9.94787
1 27.6992 18.8882 10.7464
1 28.4929 18.0945 10.7464
1 28.4884 18.8741 9.95797
1 27.6878 18.113 9.95621
1 29.2866 18.8882 10.7464
1 0.08031 18.0945 10.7464
1 0.0405553 18.8712 9.95685
1 29.2911 18.0579 9.96056
1 0.874011 18.8882 10.7464
1 1.66771 18.0945 10.7464
1 1.66627 18.8872 9.95639
1 0.865542 18.112 9.94971
1 2.46141 18.8882 10.7464
1 3.25511 18.0945 10.7464
1 3.2439 18.8733 9.93634
1 2.44117 18.1115 9.94887
1 4.04881 18.8882 10.7464
1 4.84251 18.0945 10.7464
1 4.86123 18.8832 9.98174
1 4.0475 18.1179 9.95844
1 5.63621 18.8882 10.7464
1 6.42991 18.0945 10.7464
1 6.40843 18.8743 9.94419
1 5.62523 18.0831 9.9622
1 7.22361 18.8882 10.7464
1 8.01732 18.0945 10.7464
1 8.00153 18.9112 9.95169
1 7.23789 18.1112 9.95788
1 8.81102 18.8882 10.7464
1 9.60472 18.0945 10.7464
1 9.59351 18.8783 9.95151
1 8.80048 18.1051 9.94192
1 10.3984 18.8882 10.7464
1 11.1921 18.0945 10.7464
1 11.1973 18.8971 9.91291
1 10.3824 18.0882 9.95849
1 11.9858 18.8882 10.7464
1 12.7795 18.0945 10.7464
1 12.7652 18.9018 9.95179
1 11.9777 18.1048 9.97023
1 13.5732 18.8882 10.7464
1 14.3669 18.0945 10.7464
1 14.2929 18.8959 9.91882
1 13.5386 18.0889 9.95747
1 15 17.3008 10.7464
1 15.7937 16.5071 10.7464
1 15.8532 17.3298 9.94307
1 15.0681 16.5018 9.93309
1 16.5874 17.3008 10.7464
1 17.3811 16.5071 10.7464
1 17.402 17.3018 9.9547
1 16.6086 16.4861 9.93204
1 18.1748 17.3008 10.7464
1 18.9685 16.5071 10.7464
1 18.9641 17.3122 9.96677
1 18.1875 16.499 9.95577
1 19.7622 17.3008 10.7464
1 20.5559 16.5071 10.7464
1 20.571 17.2811 9.94926
1 19.7804 16.4846 9.94648
1 21.3496 17.3008 10.7464
1 22.1433 16.5071 10.7464
1 22.1616 17.2904 9.9376
1 21.3725 16.4956 9.96776
1 22.937 17.3008 10.7464
1 23.7307 16.5071 10.7464
1 23.7309 17.3112 9.9483
1 22.9431 16.4907 9.94882
1 24.5244 17.3008 10.7464
1 25.3181 16.5071 10.7464
1 25.3204 17.3005 9.9719
1 24.4976 16.4991 9.95004
1 26.1118 17.3008 10.7464
1 26.9055 16.5071 10.7464
1 26.9198 17.2744 9.94796
1 26.1217 16.5076 9.9537
1 27.6992 17.3008 10.7464
1 28.4929 16.5071 10.7464
1 28.5019 17.2677 9.94025
1 27.7029 16.5074 9.95546
1 29.2866 17.3008 10.7464
1 0.08031 16.5071 10.7464
1 0.0834435 17.2815 9.94821
1 29.2697 16.4979 9.94996
1 0.874011 17.3008 10.7464
1 1.66771 16.5071 10.7464
1 1.66042 17.3354 9.97345
1 0.874876 16.5144 9.96944
1 2.46141 17.3008 10.7464
1 3.25511 16.5071 10.7464
1 3.27075 17.3132 9.95501
1 2.47973 16.487 9.9447
1 4.04881 17.3008 10.7464
1 4.84251 16.5071 10.7464
1 4.82099 17.3323 9.9516
1 4.03622 16.5058 9.96468
1 5.63621 17.3008 10.7464
1 6.42991 16.5071 10.7464
1 6.43112 17.3439 9.97774
1 5.63004 16.5318 9.96118
1 7.22361 17.3008 10.7464
1 8.01732 16.5071 10.7464
1 8.02581 17.312 9.95591
1 7.19103 16.4942 9.96296
1 8.81102 17.3008 10.7464
1 9.60472 16.5071 10.7464
1 9.57294 17.3289 9.95415
1 8.81124 16.5018 9.95261
1 10.3984 17.3008 10.7464
1 11.1921 16.5071 10.7464
1 11.1994 17.3137 9.95916
1 10.3914 16.5461 9.97316
1 11.9858 17.3008 10.7464
1 12.7795 16.5071 10.7464
1 12.7669 17.3218 9.95515
1 11.9631 16.5033 9.95421
1 13.5732 17.3008 10.7464
1 14.3669 16.5071 10.7464
1 14.29 17.2942 9.91263
1 13.5583 16.5159 9.9237
1 15 15.7134 10.7464
1 15.7937 14.9197 10.7464
1 15.8455 15.6965 9.93668
1 15.0642 14.9441 9.91194
1 16.5874 15.7134 10.7464
1 17.3811 14.9197 10.7464
1 17.4018 15.7048 9.95532
1 16.6426 14.9101 9.95055
1 18.1748 15.7134 10.7464
1 18.9685 14.9197 10.7464
1 18.9909 15.6962 9.93954
1 18.1592 14.9173 9.96269
1 19.7622 15.7134 10.7464
1 20.5559 14.9197 10.7464
1 20.5512 15.7321 9.93194
1 19.759 14.8965 9.9523
1 21.3496 15.7134 10.7464
1 22.1433 14.9197 10.7464
1 22.124 15.6952 9.94396
1 21.355 14.9373 9.95493
1 22.937 15.7134 10.7464
1 23.7307 14.9197 10.7464
1 23.7162 15.7192 9.98647
1 22.9205 14.9203 9.93436
1 24.5244 15.7134 10.7464
1 25.3181 14.9197 10.7464
1 25.2926 15.7067 9.95569
1 24.5364 14.9184 9.96353
1 26.1118 15.7134 10.7464
1 26.9055 14.9197 10.7464
1 26.9081 15.6968 9.97562
1 26.0975 14.9183 9.95484
1 27.6992 15.7134 10.7464
1 28.4929 14.9197 10.7464
1 28.4813 15.6868 9.94298
1 27.7214 14.9041 9.96472
1 29.2866 15.7134 10.7464
1 0.08031 14.9197 10.7464
1 0.0816431 15.7149 9.93765
1 29.28 14.9214 9.96205
1 0.874011 15.7134 10.7464
1 1.66771 14.9197 10.7464
1 1.68195 15.7554 9.93538
1 0.878007 14.9295 9.95523
1 2.46141 15.7134 10.7464
1 3.25511 14.9197 10.7464
1 3.26323 15.7022 9.95801
1 2.46093 14.9518 9.96798
1 4.04881 15.7134 10.7464
1 4.84251 14.9197 10.7464
1 4.83514 15.72 9.98704
1 4.05527 14.9215 9.97042
1 5.63621 15.7134 10.7464
1 6.42991 14.9197 10.7464
1 6.42747 15.7145 9.9472
1 5.63077 14.9229 9.95179
1 7.22361 15.7134 10.7464
1 8.01732 14.9197 10.7464
1 8.0092 15.7028 9.92798
1 7.21925 14.9058 9.94722
1 8.81102 15.7134 10.7464
1 9.60472 14.9197 10.7464
1 9.60953 15.7295 9.93604
1 8.81723 14.8981 9.97064
1 10.3984 15.7134 10.7464
1 11.1921 14.9197 10.7464
1 11.1754 15.7062 9.9524
1 10.3752 14.9318 9.9516
1 11.9858 15.7134 10.7464
1 12.7795 14.9197 10.7464
1 12.763 15.7327 9.95666
1 11.9786 14.9212 9.96886
1 13.5732 15.7134 10.7464
1 14.3669 14.9197 10.7464
1 14.2801 15.7308 9.95458
1 13.5353 14.9175 9.96231
1 15 14.126 10.7464
1 15.7937 13.3323 10.7464
1 15.8111 14.1205 9.95778
1 15.0506 13.3433 9.93998
1 16.5874 14.126 10.7464
1 17.3811 13.3323 10.7464
1 17.3932 14.0992 9.96585
1 16.6116 13.3291 9.96034
1 18.1748 14.126 10.7464
1 18.9685 13.3323 10.7464
1 18.9759 14.1387 9.98853
1 18.1951 13.3397 9.95988
1 19.7622 14.126 10.7464
1 20.5559 13.3323 10.7464
1 20.544 14.1401 9.96302
1 19.7426 13.3179 9.96504
1 21.3496 14.126 10.7464
1 22.1433 13.3323 10.7464
1 22.1394 14.1173 9.95711
1 21.3552 13.3502 9.96983
1 22.937 14.126 10.7464
1 23.7307 13.3323 10.7464
1 23.7044 14.1178 9.95143
1 22.926 13.3361 9.94657
1 24.5244 14.126 10.7464
1 25.3181 13.3323 10.7464
1 25.3218 14.1152 9.94852
1 24.5083 13.3459 9.95521
1 26.1118 14.126 10.7464
1 26.9055 13.3323 10.7464
1 26.9132 14.1191 9.93831
1 26.1206 13.3275 9.94272
1 27.6992 14.126 10.7464
1 28.4929 13.3323 10.7464
1 28.4836 14.1225 9.968
1 27.71 13.3161 9.93212
1 29.2866 14.126 10.7464
1 0.08031 13.3323 10.7464
1 0.0803155 14.1221 9.95748
1 29.2322 13.3265 9.93513
1 0.874011 14.126 10.7464
1 1.66771 13.3323 10.7464
1 1.65305 14.1207 9.94514
1 0.871392 13.339 9.95631
1 2.46141 14.126 10.7464
1 3.25511 13.3323 10.7464
1 3.2517 14.1309 9.93544
1 2.47271 13.3278 9.94551
1 4.04881 14.126 10.7464
1 4.84251 13.3323 10.7464
1 4.83491 14.1057 9.95091
1 4.04923 13.3646 9.9707
1 5.63621 14.126 10.7464
1 6.42991 13.3323 10.7464
1 6.4056 14.1097 9.9691
1 5.62294 13.349 9.98378
1 7.22361 14.126 10.7464
1 8.01732 13.3323 10.7464
1 8.0391 14.1311 9.96323
1 7.19808 13.3338 9.95587
1 8.81102 14.126 10.7464
1 9.60472 13.3323 10.7464
1 9.6273 14.1358 9.94382
1 8.80322 13.334 9.93702
1 10.3984 14.126 10.7464
1 11.1921 13.3323 10.7464
1 11.1701 14.1282 9.97633
1 10.3874 13.3297 9.93934
1 11.9858 14.126 10.7464
1 12.7795 13.3323 10.7464
1 12.7855 14.136 9.95292
1 11.991 13.3622 9.93309
1 13.5732 14.126 10.7464
1 14.3669 13.3323 10.7464
1 14.2759 14.1511 9.90367
1 13.5484 13.3216 9.91946
1 15 12.5386 10.7464
1 15.7937 11.7449 10.7464
1 15.8377 12.5557 9.94324
1 15.0784 11.7195 9.90979
1 16.5874 12.5386 10.7464
1 17.3811 11.7449 10.7464
1 17.3989 12.5356 9.94917
1 16.6036 11.7324 9.92648
1 18.1748 12.5386 10.7464
1 18.9685 11.7449 10.7464
1 18.9801 12.54 9.92647
1 18.1852 11.766 9.97522
1 19.7622 12.5386 10.7464
1 20.5559 11.7449 10.7464
1 20.5703 12.5477 9.95674
1 19.7585 11.7413 9.96145
1 21.3496 12.5386 10.7464
1 22.1433 11.7449 10.7464
1 22.1367 12.5555 9.95943
1 21.3553 11.7279 9.98448
1 22.937 12.5386 10.7464
1 23.7307 11.7449 10.7464
1 23.7219 12.5477 9.97096
1 22.9368 11.7434 9.95472
1 24.5244 12.5386 10.7464
1 25.3181 11.7449 10.7464
1 25.3208 12.551 9.95541
1 24.5252 11.7506 9.96553
1 26.1118 12.5386 10.7464
1 26.9055 11.7449 10.7464
1 26.8958 12.5403 9.96378
1 26.1118 11.7286 9.94066
1 27.6992 12.5386 10.7464
1 28.4929 11.7449 10.7464
1 28.4776 12.5037 9.94429
1 27.7001 11.7524 9.93954
1 29.2866 12.5386 10.7464
1 0.08031 11.7449 10.7464
1 0.0876036 12.5512 9.97337
1 29.3073 11.7569 9.95386
1 0.874011 12.5386 10.7464
1 1.66771 11.7449 10.7464
1 1.66152 12.5302 9.95881
1 0.835649 11.7343 9.98152
1 2.46141 12.5386 10.7464
1 3.25511 11.7449 10.7464
1 3.2578 12.536 9.95319
1 2.46191 11.7328 9.96561
1 4.04881 12.5386 10.7464
1 4.84251 11.7449 10.7464
1 4.83389 12.5399 9.94396
1 4.06088 11.7367 9.97078
1 5.63621 12.5386 10.7464
1 6.42991 11.7449 10.7464
1 6.4188 12.5435 9.95292
1 5.63137 11.7509 9.95578
1 7.22361 12.5386 10.7464
1 8.01732 11.7449 10.7464
1 8.00506 12.5294 9.96998
1 7.22135 11.7407 9.96165
1 8.81102 12.5386 10.7464
1 9.60472 11.7449 10.7464
1 9.59321 12.5433 9.96306
1 8.80176 11.7506 9.97017
1 10.3984 12.5386 10.7464
1 11.1921 11.7449 10.7464
1 11.193 12.5219 9.93508
1 10.3739 11.7642 9.92536
1 11.9858 12.5386 10.7464
1 12.7795 11.7449 10.7464
1 12.7688 12.5347 9.94179
1 11.9573 11.7302 9.96345
1 13.5732 12.5386 10.7464
1 14.3669 11.7449 10.7464
1 14.302 12.5439 9.92904
1 13.52 11.7497 9.94309
1 15 10.9512 10.7464
1 15.7937 10.1575 10.7464
1 15.8234 10.9259 9.96956
1 15.0618 10.1469 9.90638
1 16.5874 10.9512 10.7464
1 17.3811 10.1575 10.7464
1 17.4135 10.9376 9.97175
1 16.6262 10.1348 9.95741
1 18.1748 10.9512 10.7464
1 18.9685 10.1575 10.7464
1 18.9861 10.9577 9.96674
1 18.182 10.1477 9.96028
1 19.7622 10.9512 10.7464
1 20.5559 10.1575 10.7464
1 20.5518 10.9569 9.95123
1 19.7604 10.1774 9.98776
1 21.3496 10.9512 10.7464
1 22.1433 10.1575 10.7464
1 22.1354 10.9317 9.94867
1 21.3361 10.1411 9.97148
1 22.937 10.9512 10.7464
1 23.7307 10.1575 10.7464
1 23.7439 10.9537 9.95617
1 22.9345 10.1734 9.96876
1 24.5244 10.9512 10.7464
1 25.3181 10.1575 10.7464
1 25.3029 10.9666 9.9679
1 24.4989 10.1563 9.97019
1 26.1118 10.9512 10.7464
1 26.9055 10.1575 10.7464
1 26.8896 10.9365 9.94836
1 26.0836 10.1314 9.95663
1 27.6992 10.9512 10.7464
1 28.4929 10.1575 10.7464
1 28.4936 10.96 9.9345
1 27.6927 10.1525 9.95081
1 29.2866 10.9512 10.7464
1 0.08031 10.1575 10.7464
1 0.0770235 10.9386 9.98193
1 29.2891 10.1446 9.94335
1 0.874011 10.9512 10.7464
1 1.66771 10.1575 10.7464
1 1.63989 10.9456 9.96638
1 0.856417 10.1249 9.95182
1 2.46141 10.9512 10.7464
1 3.25511 10.1575 10.7464
1 3.2866 10.9552 9.94768
1 2.42876 10.1776 9.97261
1 4.04881 10.9512 10.7464
1 4.84251 10.1575 10.7464
1 4.83359 10.9341 9.97962
1 4.03681 10.159 9.95457
1 5.63621 10.9512 10.7464
1 6.42991 10.1575 10.7464
1 6.45082 10.9298 9.96454
1 5.65301 10.1638 9.94761
1 7.22361 10.9512 10.7464
1 8.01732 10.1575 10.7464
1 8.00478 10.9441 9.95966
1 7.23406 10.1508 9.97676
1 8.81102 10.9512 10.7464
1 9.60472 10.1575 10.7464
1 9.60243 10.9663 9.97785
1 8.79862 10.1405 9.95906
1 10.3984 10.9512 10.7464
1 11.1921 10.1575 10.7464
1 11.1568 10.9633 9.9542
1 10.4007 10.1429 9.94403
1 11.9858 10.9512 10.7464
1 12.7795 10.1575 10.7464
1 12.7555 10.9342 9.93822
1 11.9607 10.15 9.95473
1 13.5732 10.9512 10.7464
1 14.3669 10.1575 10.7464
1 14.3012 10.9541 9.91727
1 13.5853 10.1691 9.96504
1 15 9.36379 10.7464
1 15.7937 8.57009 10.7464
1 15.8145 9.34581 9.94288
1 15.056 8.55152 9.94214
1 16.5874 9.36379 10.7464
1 17.3811 8.57009 10.7464
1 17.4115 9.3497 9.95103
1 16.625 8.5611 9.94245
1 18.1748 9.36379 10.7464
1 18.9685 8.57009 10.7464
1 18.9726 9.35806 9.98485
1 18.1969 8.56708 9.92933
1 19.7622 9.36379 10.7464
1 20.5559 8.57009 10.7464
1 20.5629 9.37069 9.95642
1 19.7791 8.59864 9.9414
1 21.3496 9.36379 10.7464
1 22.1433 8.57009 10.7464
1 22.1505 9.37457 9.95901
1 21.3721 8.60334 9.97261
1 22.937 9.36379 10.7464
1 23.7307 8.57009 10.7464
1 23.7386 9.36944 9.95299
1 22.9146 8.58304 9.94782
1 24.5244 9.36379 10.7464
1 25.3181 8.57009 10.7464
1 25.3007 9.35135 9.94012
1 24.5165 8.57105 9.96576
1 26.1118 9.36379 10.7464
1 26.9055 8.57009 10.7464
1 26.9158 9.36461 9.96054
1 26.1141 8.58698 9.95157
1 27.6992 9.36379 10.7464
1 28.4929 8.57009 10.7464
1 28.4891 9.38186 9.94991
1 27.6969 8.56679 9.95263
1 29.2866 9.36379 10.7464
1 0.08031 8.57009 10.7464
1 0.0639528 9.34979 9.9248
1 29.3029 8.56918 9.95666
1 0.874011 9.36379 10.7464
1 1.66771 8.57009 10.7464
1 1.67699 9.37858 9.94139
1 0.862862 8.5855 9.95477
1 2.46141 9.36379 10.7464
1 3.25511 8.57009 10.7464
1 3.22833 9.36567 9.9458
1 2.45811 8.58364 9.96882
1 4.04881 9.36379 10.7464
1 4.84251 8.57009 10.7464
1 4.84308 9.39785 9.95353
1 4.04507 8.574 9.93921
1 5.63621 9.36379 10.7464
1 6.42991 8.57009 10.7464
1 6.41671 9.34189 9.95148
1 5.62583 8.57577 9.93526
1 7.22361 9.36379 10.7464
1 8.01732 8.57009 10.7464
1 8.02797 9.36055 9.94029
1 7.22559 8.56718 9.94993
1 8.81102 9.36379 10.7464
1 9.60472 8.57009 10.7464
1 9.61363 9.35753 9.96528
1 8.81379 8.56649 9.95502
1 10.3984 9.36379 10.7464
1 11.1921 8.57009 10.7464
1 11.1895 9.36 9.95946
1 10.4031 8.56085 9.94361
1 11.9858 9.36379 10.7464
1 12.7795 8.57009 10.7464
1 12.7604 9.3632 9.9608
1 11.9508 8.55542 9.95204
1 13.5732 9.36379 10.7464
1 14.3669 8.57009 10.7464
1 14.3176 9.35769 9.92017
1 13.5425 8.5757 9.96908
1 15 7.77639 10.7464
1 15.7937 6.98268 10.7464
1 15.7853 7.78663 9.95926
1 15.0567 6.97603 9.88722
1 16.5874 7.77639 10.7464
1 17.3811 6.98268 10.7464
1 17.3959 7.76334 9.92529
1 16.598 7.0002 9.94205
1 18.1748 7.77639 10.7464
1 18.9685 6.98268 10.7464
1 19.0054 7.7903 9.95163
1 18.193 6.99301 9.96091
1 19.7622 7.77639 10.7464
1 20.5559 6.98268 10.7464
1 20.58 7.78661 9.95379
1 19.7736 7.02313 9.9655
1 21.3496 7.77639 10.7464
1 22.1433 6.98268 10.7464
1 22.132 7.79682 9.95519
1 21.3393 7.00551 9.94414
1 22.937 7.77639 10.7464
1 23.7307 6.98268 10.7464
1 23.7086 7.77471 9.96176
1 22.9265 6.95103 9.949
1 24.5244 7.77639 10.7464
1 25.3181 6.98268 10.7464
1 25.3017 7.7397 9.95878
1 24.5144 6.97507 9.93862
1 26.1118 7.77639 10.7464
1 26.9055 6.98268 10.7464
1 26.917 7.78948 9.94488
1 26.1173 6.97018 9.96392
1 27.6992 7.77639 10.7464
1 28.4929 6.98268 10.7464
1 28.5014 7.78465 9.96448
1 27.7051 6.98053 9.95658
1 29.2866 7.77639 10.7464
1 0.08031 6.98268 10.7464
1 0.0768391 7.79471 9.94908
1 29.2991 6.9931 9.97205
1 0.874011 7.77639 10.7464
1 1.66771 6.98268 10.7464
1 1.6866 7.79675 9.94602
1 0.87525 6.9908 9.92675
1 2.46141 7.77639 10.7464
1 3.25511 6.98268 10.7464
1 3.25018 7.7899 9.96288
1 2.46673 6.98778 9.93398
1 4.04881 7.77639 10.7464
1 4.84251 6.98268 10.7464
1 4.81329 7.77462 9.96186
1 4.03671 6.96843 9.91752
1 5.63621 7.77639 10.7464
1 6.42991 6.98268 10.7464
1 6.41293 7.74964 9.92401
1 5.61754 6.9803 9.95471
1 7.22361 7.77639 10.7464
1 8.01732 6.98268 10.7464
1 8.03195 7.7814 9.97951
1 7.25855 6.96753 9.95237
1 8.81102 7.77639 10.7464
1 9.60472 6.98268 10.7464
1 9.57981 7.78539 9.93255
1 8.79646 6.97839 9.95673
1 10.3984 7.77639 10.7464
1 11.1921 6.98268 10.7464
1 11.1703 7.7886 9.96135
1 10.3732 7.00113 9.97585
1 11.9858 7.77639 10.7464
1 12.7795 6.98268 10.7464
1 12.7773 7.79037 9.93516
1 11.9779 7.02461 9.95326
1 13.5732 7.77639 10.7464
1 14.3669 6.98268 10.7464
1 14.2701 7.77429 9.93305
1 13.541 6.97364 9.95486
1 15 6.18898 10.7464
1 15.7937 5.39528 10.7464
1 15.8297 6.17419 9.94364
1 15.0796 5.41604 9.91155
1 16.5874 6.18898 10.7464
1 17.3811 5.39528 10.7464
1 17.3891 6.20654 9.93613
1 16.6119 5.40217 9.92569
1 18.1748 6.18898 10.7464
1 18.9685 5.39528 10.7464
1 18.9784 6.20124 9.94631
1 18.1765 5.40342 9.98776
1 19.7622 6.18898 10.7464
1 20.5559 5.39528 10.7464
1 20.5553 6.20685 9.96956
1 19.7886 5.4058 9.93613
1 21.3496 6.18898 10.7464
1 22.1433 5.39528 10.7464
1 22.1382 6.17433 9.95998