12976
Atoms. Timestep: 4000000
1 1.30597e-09 7.10543e-15 15.1986
1 0.793701 29.2063 15.1986
1 0.827312 29.9155 14.3389
1 0.04907 29.1861 14.3762
1 1.5874 7.10543e-15 15.1986
1 2.3811 29.2063 15.1986
1 2.3823 29.9358 14.3791
1 1.6033 29.1812 14.4088
1 3.1748 7.10543e-15 15.1986
1 3.9685 29.2063 15.1986
1 3.94771 29.9132 14.3651
1 3.18312 29.1775 14.4055
1 4.7622 7.10543e-15 15.1986
1 5.5559 29.2063 15.1986
1 5.53338 29.9317 14.3931
1 4.75117 29.1838 14.3972
1 6.3496 7.10543e-15 15.1986
1 7.1433 29.2063 15.1986
1 7.13212 29.9377 14.3853
1 6.36809 29.1881 14.4283
1 7.93701 7.10543e-15 15.1986
1 8.73071 29.2063 15.1986
1 8.74361 29.9407 14.3746
1 7.92203 29.1775 14.4098
1 9.52441 7.10543e-15 15.1986
1 10.3181 29.2063 15.1986
1 10.3401 29.9134 14.4043
1 9.52029 29.1773 14.3952
1 11.1118 7.10543e-15 15.1986
1 11.9055 29.2063 15.1986
1 11.8879 29.9254 14.3945
1 11.0982 29.1984 14.3961
1 12.6992 7.10543e-15 15.1986
1 13.4929 29.2063 15.1986
1 13.4803 29.9237 14.3641
1 12.6895 29.169 14.3822
1 14.2866 7.10543e-15 15.1986
1 15.0803 29.2063 15.1986
1 15.092 29.9313 14.3783
1 14.272 29.1628 14.4081
1 15.874 7.10543e-15 15.1986
1 16.6677 29.2063 15.1986
1 16.6534 29.9283 14.3484
1 15.8982 29.1588 14.3738
1 17.4614 7.10543e-15 15.1986
1 18.2551 29.2063 15.1986
1 18.2593 29.9213 14.3558
1 17.4368 29.1577 14.3911
1 19.0488 7.10543e-15 15.1986
1 19.8425 29.2063 15.1986
1 19.8476 29.9373 14.3866
1 19.0358 29.1892 14.414
1 20.6362 7.10543e-15 15.1986
1 21.4299 29.2063 15.1986
1 21.4009 29.9174 14.3617
1 20.6394 29.1575 14.4225
1 22.2236 7.10543e-15 15.1986
1 23.0173 29.2063 15.1986
1 23.028 29.9585 14.3746
1 22.2371 29.1682 14.3981
1 23.811 7.10543e-15 15.1986
1 24.6047 29.2063 15.1986
1 24.6072 29.9439 14.3747
1 23.8066 29.1691 14.3936
1 25.3984 7.10543e-15 15.1986
1 26.1921 29.2063 15.1986
1 26.1918 29.9454 14.3723
1 25.3988 29.1445 14.3756
1 26.9858 7.10543e-15 15.1986
1 27.7795 29.2063 15.1986
1 27.7685 29.9122 14.3545
1 26.9353 29.1597 14.4034
1 28.5732 7.10543e-15 15.1986
1 29.3669 29.2063 15.1986
1 29.2999 29.9472 14.3388
1 28.5393 29.1893 14.3812
1 1.30597e-09 28.4126 15.1986
1 0.793701 27.6189 15.1986
1 0.826575 28.3968 14.3731
1 0.0998645 27.6175 14.3619
1 1.5874 28.4126 15.1986
1 2.3811 27.6189 15.1986
1 2.38225 28.4035 14.4167
1 1.6041 27.6231 14.4008
1 3.1748 28.4126 15.1986
1 3.9685 27.6189 15.1986
1 3.9856 28.3938 14.4066
1 3.177 27.6148 14.4126
1 4.7622 28.4126 15.1986
1 5.5559 27.6189 15.1986
1 5.55908 28.3919 14.4088
1 4.7695 27.5673 14.4119
1 6.3496 28.4126 15.1986
1 7.1433 27.6189 15.1986
1 7.14513 28.4048 14.3959
1 6.33767 27.6303 14.3788
1 7.93701 28.4126 15.1986
1 8.73071 27.6189 15.1986
1 8.71301 28.4019 14.4157
1 7.95218 27.5948 14.3928
1 9.52441 28.4126 15.1986
1 10.3181 27.6189 15.1986
1 10.3203 28.3988 14.389
1 9.52141 27.592 14.3834
1 11.1118 28.4126 15.1986
1 11.9055 27.6189 15.1986
1 11.9005 28.4221 14.4004
1 11.1101 27.5948 14.4136
1 12.6992 28.4126 15.1986
1 13.4929 27.6189 15.1986
1 13.4859 28.3989 14.398
1 12.7016 27.6078 14.4129
1 14.2866 28.4126 15.1986
1 15.0803 27.6189 15.1986
1 15.0859 28.3747 14.4263
1 14.2949 27.6088 14.4042
1 15.874 28.4126 15.1986
1 16.6677 27.6189 15.1986
1 16.6615 28.3777 14.4097
1 15.8603 27.607 14.4116
1 17.4614 28.4126 15.1986
1 18.2551 27.6189 15.1986
1 18.2377 28.3964 14.413
1 17.446 27.61 14.4
1 19.0488 28.4126 15.1986
1 19.8425 27.6189 15.1986
1 19.8356 28.3823 14.4038
1 19.051 27.618 14.3843
1 20.6362 28.4126 15.1986
1 21.4299 27.6189 15.1986
1 21.4007 28.3777 14.3864
1 20.6483 27.5767 14.408
1 22.2236 28.4126 15.1986
1 23.0173 27.6189 15.1986
1 23.0208 28.3786 14.4187
1 22.2158 27.6231 14.399
1 23.811 28.4126 15.1986
1 24.6047 27.6189 15.1986
1 24.6196 28.372 14.4161
1 23.7969 27.601 14.4196
1 25.3984 28.4126 15.1986
1 26.1921 27.6189 15.1986
1 26.1725 28.3756 14.3797
1 25.4029 27.6071 14.3882
1 26.9858 28.4126 15.1986
1 27.7795 27.6189 15.1986
1 27.7465 28.3872 14.4093
1 26.9612 27.6119 14.4063
1 28.5732 28.4126 15.1986
1 29.3669 27.6189 15.1986
1 29.3003 28.4114 14.3595
1 28.5514 27.647 14.4237
1 1.30597e-09 26.8252 15.1986
1 0.793701 26.0315 15.1986
1 0.797432 26.8196 14.4148
1 0.0619128 25.9917 14.3403
1 1.5874 26.8252 15.1986
1 2.3811 26.0315 15.1986
1 2.3794 26.8229 14.3919
1 1.57439 26.018 14.3954
1 3.1748 26.8252 15.1986
1 3.9685 26.0315 15.1986
1 3.96659 26.8297 14.4015
1 3.15964 26.0541 14.4135
1 4.7622 26.8252 15.1986
1 5.5559 26.0315 15.1986
1 5.56724 26.8112 14.3952
1 4.76469 26.037 14.3911
1 6.3496 26.8252 15.1986
1 7.1433 26.0315 15.1986
1 7.12911 26.8236 14.4102
1 6.36931 26.0233 14.4191
1 7.93701 26.8252 15.1986
1 8.73071 26.0315 15.1986
1 8.74963 26.8018 14.3995
1 7.92226 26.0409 14.411
1 9.52441 26.8252 15.1986
1 10.3181 26.0315 15.1986
1 10.3192 26.8037 14.3933
1 9.53145 26.01 14.3973
1 11.1118 26.8252 15.1986
1 11.9055 26.0315 15.1986
1 11.8947 26.8124 14.406
1 11.1066 26.0294 14.401
1 12.6992 26.8252 15.1986
1 13.4929 26.0315 15.1986
1 13.4964 26.7773 14.4084
1 12.6838 26.0181 14.4
1 14.2866 26.8252 15.1986
1 15.0803 26.0315 15.1986
1 15.0686 26.8176 14.3831
1 14.2862 26.0152 14.3902
1 15.874 26.8252 15.1986
1 16.6677 26.0315 15.1986
1 16.6561 26.8371 14.4109
1 15.8747 26.0205 14.4004
1 17.4614 26.8252 15.1986
1 18.2551 26.0315 15.1986
1 18.2545 26.8267 14.3974
1 17.4681 26.0222 14.4091
1 19.0488 26.8252 15.1986
1 19.8425 26.0315 15.1986
1 19.8297 26.8174 14.4088
1 19.0351 26.0129 14.3975
1 20.6362 26.8252 15.1986
1 21.4299 26.0315 15.1986
1 21.4362 26.8005 14.3872
1 20.6382 26.0256 14.4088
1 22.2236 26.8252 15.1986
1 23.0173 26.0315 15.1986
1 23.007 26.8342 14.388
1 22.2302 26.0235 14.4059
1 23.811 26.8252 15.1986
1 24.6047 26.0315 15.1986
1 24.5965 26.8216 14.4035
1 23.8089 26.0365 14.3758
1 25.3984 26.8252 15.1986
1 26.1921 26.0315 15.1986
1 26.1767 26.8175 14.4065
1 25.3788 26.0185 14.4115
1 26.9858 26.8252 15.1986
1 27.7795 26.0315 15.1986
1 27.7785 26.8229 14.3904
1 26.9566 26.0335 14.3825
1 28.5732 26.8252 15.1986
1 29.3669 26.0315 15.1986
1 29.293 26.7857 14.372
1 28.5457 26.0142 14.4181
1 1.30597e-09 25.2378 15.1986
1 0.793701 24.4441 15.1986
1 0.795845 25.2379 14.3983
1 0.0626792 24.4229 14.36
1 1.5874 25.2378 15.1986
1 2.3811 24.4441 15.1986
1 2.39118 25.2409 14.3868
1 1.59029 24.4334 14.3831
1 3.1748 25.2378 15.1986
1 3.9685 24.4441 15.1986
1 3.96117 25.2419 14.4069
1 3.16884 24.4321 14.4009
1 4.7622 25.2378 15.1986
1 5.5559 24.4441 15.1986
1 5.56562 25.2369 14.3914
1 4.74661 24.4545 14.3984
1 6.3496 25.2378 15.1986
1 7.1433 24.4441 15.1986
1 7.16136 25.2391 14.4142
1 6.37519 24.4498 14.4083
1 7.93701 25.2378 15.1986
1 8.73071 24.4441 15.1986
1 8.71439 25.2349 14.4254
1 7.95501 24.4447 14.385
1 9.52441 25.2378 15.1986
1 10.3181 24.4441 15.1986
1 10.3333 25.265 14.409
1 9.51987 24.4369 14.3947
1 11.1118 25.2378 15.1986
1 11.9055 24.4441 15.1986
1 11.8763 25.2271 14.4353
1 11.0828 24.4434 14.408
1 12.6992 25.2378 15.1986
1 13.4929 24.4441 15.1986
1 13.4749 25.2436 14.3964
1 12.7064 24.4543 14.3898
1 14.2866 25.2378 15.1986
1 15.0803 24.4441 15.1986
1 15.0583 25.2365 14.4049
1 14.2608 24.4492 14.4159
1 15.874 25.2378 15.1986
1 16.6677 24.4441 15.1986
1 16.6678 25.1987 14.406
1 15.8634 24.4418 14.4117
1 17.4614 25.2378 15.1986
1 18.2551 24.4441 15.1986
1 18.2649 25.2036 14.4034
1 17.4442 24.4281 14.3891
1 19.0488 25.2378 15.1986
1 19.8425 24.4441 15.1986
1 19.8436 25.241 14.4088
1 19.0649 24.4306 14.3832
1 20.6362 25.2378 15.1986
1 21.4299 24.4441 15.1986
1 21.4591 25.2462 14.3969
1 20.6308 24.4338 14.432
1 22.2236 25.2378 15.1986
1 23.0173 24.4441 15.1986
1 23.0335 25.2421 14.403
1 22.2169 24.4686 14.4056
1 23.811 25.2378 15.1986
1 24.6047 24.4441 15.1986
1 24.6043 25.2224 14.4071
1 23.8103 24.4393 14.3988
1 25.3984 25.2378 15.1986
1 26.1921 24.4441 15.1986
1 26.1967 25.2544 14.4191
1 25.3898 24.442 14.3976
1 26.9858 25.2378 15.1986
1 27.7795 24.4441 15.1986
1 27.756 25.2261 14.3838
1 26.972 24.4514 14.4266
1 28.5732 25.2378 15.1986
1 29.3669 24.4441 15.1986
1 29.3051 25.1836 14.3714
1 28.5318 24.4268 14.3823
1 1.30597e-09 23.6504 15.1986
1 0.793701 22.8567 15.1986
1 0.81145 23.6397 14.3954
1 0.051518 22.844 14.3705
1 1.5874 23.6504 15.1986
1 2.3811 22.8567 15.1986
1 2.36651 23.6643 14.4142
1 1.60252 22.8438 14.4007
1 3.1748 23.6504 15.1986
1 3.9685 22.8567 15.1986
1 3.95706 23.6613 14.3839
1 3.17955 22.8544 14.4123
1 4.7622 23.6504 15.1986
1 5.5559 22.8567 15.1986
1 5.55782 23.6658 14.3969
1 4.75535 22.8791 14.3965
1 6.3496 23.6504 15.1986
1 7.1433 22.8567 15.1986
1 7.17711 23.6343 14.3969
1 6.35481 22.8824 14.418
1 7.93701 23.6504 15.1986
1 8.73071 22.8567 15.1986
1 8.72632 23.6662 14.4
1 7.94468 22.8512 14.403
1 9.52441 23.6504 15.1986
1 10.3181 22.8567 15.1986
1 10.3169 23.6424 14.4009
1 9.51988 22.8626 14.4327
1 11.1118 23.6504 15.1986
1 11.9055 22.8567 15.1986
1 11.9212 23.6396 14.4012
1 11.1117 22.883 14.4097
1 12.6992 23.6504 15.1986
1 13.4929 22.8567 15.1986
1 13.4915 23.6499 14.3713
1 12.7275 22.8564 14.4104
1 14.2866 23.6504 15.1986
1 15.0803 22.8567 15.1986
1 15.0817 23.6283 14.4052
1 14.2794 22.8355 14.4242
1 15.874 23.6504 15.1986
1 16.6677 22.8567 15.1986
1 16.6855 23.6509 14.4053
1 15.8828 22.856 14.4057
1 17.4614 23.6504 15.1986
1 18.2551 22.8567 15.1986
1 18.2494 23.6416 14.4085
1 17.4574 22.8592 14.3988
1 19.0488 23.6504 15.1986
1 19.8425 22.8567 15.1986
1 19.8482 23.6336 14.3934
1 19.0678 22.8484 14.3945
1 20.6362 23.6504 15.1986
1 21.4299 22.8567 15.1986
1 21.4316 23.6494 14.43
1 20.6608 22.8399 14.4104
1 22.2236 23.6504 15.1986
1 23.0173 22.8567 15.1986
1 23.0243 23.6625 14.4225
1 22.2204 22.8705 14.4142
1 23.811 23.6504 15.1986
1 24.6047 22.8567 15.1986
1 24.597 23.6372 14.4095
1 23.7867 22.8426 14.4056
1 25.3984 23.6504 15.1986
1 26.1921 22.8567 15.1986
1 26.1888 23.6697 14.3983
1 25.3938 22.8559 14.4098
1 26.9858 23.6504 15.1986
1 27.7795 22.8567 15.1986
1 27.7686 23.6684 14.4032
1 26.9789 22.8452 14.4092
1 28.5732 23.6504 15.1986
1 29.3669 22.8567 15.1986
1 29.3274 23.626 14.3599
1 28.5223 22.8492 14.4041
1 1.30597e-09 22.063 15.1986
1 0.793701 21.2693 15.1986
1 0.824083 22.0408 14.3954
1 0.0554404 21.275 14.3871
1 1.5874 22.063 15.1986
1 2.3811 21.2693 15.1986
1 2.39179 22.0767 14.4026
1 1.60441 21.2569 14.4125
1 3.1748 22.063 15.1986
1 3.9685 21.2693 15.1986
1 3.96835 22.0468 14.3987
1 3.16653 21.2476 14.4066
1 4.7622 22.063 15.1986
1 5.5559 21.2693 15.1986
1 5.58246 22.06 14.4079
1 4.75093 21.2591 14.3904
1 6.3496 22.063 15.1986
1 7.1433 21.2693 15.1986
1 7.14399 22.059 14.3888
1 6.33669 21.265 14.43
1 7.93701 22.063 15.1986
1 8.73071 21.2693 15.1986
1 8.73226 22.0917 14.4026
1 7.94827 21.2707 14.3987
1 9.52441 22.063 15.1986
1 10.3181 21.2693 15.1986
1 10.3153 22.0674 14.4281
1 9.51699 21.2762 14.3936
1 11.1118 22.063 15.1986
1 11.9055 21.2693 15.1986
1 11.9138 22.0755 14.4354
1 11.1019 21.29 14.4498
1 12.6992 22.063 15.1986
1 13.4929 21.2693 15.1986
1 13.5187 22.0527 14.413
1 12.7227 21.2553 14.4208
1 14.2866 22.063 15.1986
1 15.0803 21.2693 15.1986
1 15.0828 22.0276 14.4211
1 14.3018 21.2848 14.4056
1 15.874 22.063 15.1986
1 16.6677 21.2693 15.1986
1 16.6675 22.0704 14.4051
1 15.8643 21.2608 14.4353
1 17.4614 22.063 15.1986
1 18.2551 21.2693 15.1986
1 18.2379 22.0769 14.4152
1 17.4666 21.3003 14.4123
1 19.0488 22.063 15.1986
1 19.8425 21.2693 15.1986
1 19.8437 22.0696 14.4005
1 19.0262 21.2702 14.4271
1 20.6362 22.063 15.1986
1 21.4299 21.2693 15.1986
1 21.4271 22.0582 14.3956
1 20.674 21.2627 14.3864
1 22.2236 22.063 15.1986
1 23.0173 21.2693 15.1986
1 22.9932 22.0694 14.3915
1 22.1875 21.2462 14.3909
1 23.811 22.063 15.1986
1 24.6047 21.2693 15.1986
1 24.5905 22.089 14.4031
1 23.8059 21.2782 14.4198
1 25.3984 22.063 15.1986
1 26.1921 21.2693 15.1986
1 26.1964 22.0551 14.4091
1 25.4051 21.2996 14.4118
1 26.9858 22.063 15.1986
1 27.7795 21.2693 15.1986
1 27.782 22.0423 14.4119
1 26.949 21.2732 14.4137
1 28.5732 22.063 15.1986
1 29.3669 21.2693 15.1986
1 29.2991 22.0436 14.4216
1 28.5352 21.256 14.3943
1 1.30597e-09 20.4756 15.1986
1 0.793701 19.6819 15.1986
1 0.841615 20.458 14.4013
1 0.0638944 19.6725 14.3928
1 1.5874 20.4756 15.1986
1 2.3811 19.6819 15.1986
1 2.39839 20.4616 14.3889
1 1.59349 19.6499 14.4175
1 3.1748 20.4756 15.1986
1 3.9685 19.6819 15.1986
1 3.96593 20.4663 14.4016
1 3.18213 19.6822 14.3931
1 4.7622 20.4756 15.1986
1 5.5559 19.6819 15.1986
1 5.54819 20.4828 14.4082
1 4.77068 19.6844 14.3881
1 6.3496 20.4756 15.1986
1 7.1433 19.6819 15.1986
1 7.17299 20.4996 14.4411
1 6.37456 19.7049 14.4165
1 7.93701 20.4756 15.1986
1 8.73071 19.6819 15.1986
1 8.7419 20.494 14.4199
1 7.95492 19.6907 14.4014
1 9.52441 20.4756 15.1986
1 10.3181 19.6819 15.1986
1 10.3235 20.4784 14.414
1 9.53549 19.6944 14.4018
1 11.1118 20.4756 15.1986
1 11.9055 19.6819 15.1986
1 11.9076 20.4709 14.417
1 11.11 19.6905 14.4014
1 12.6992 20.4756 15.1986
1 13.4929 19.6819 15.1986
1 13.5147 20.4471 14.4131
1 12.705 19.6651 14.4058
1 14.2866 20.4756 15.1986
1 15.0803 19.6819 15.1986
1 15.087 20.4613 14.4222
1 14.3007 19.6879 14.4115
1 15.874 20.4756 15.1986
1 16.6677 19.6819 15.1986
1 16.661 20.4717 14.411
1 15.8909 19.6829 14.4131
1 17.4614 20.4756 15.1986
1 18.2551 19.6819 15.1986
1 18.2447 20.4868 14.4033
1 17.472 19.6581 14.417
1 19.0488 20.4756 15.1986
1 19.8425 19.6819 15.1986
1 19.8402 20.4965 14.4111
1 19.0262 19.6934 14.4162
1 20.6362 20.4756 15.1986
1 21.4299 19.6819 15.1986
1 21.4183 20.4514 14.3882
1 20.6402 19.6857 14.3996
1 22.2236 20.4756 15.1986
1 23.0173 19.6819 15.1986
1 23.0362 20.4627 14.395
1 22.2112 19.668 14.3802
1 23.811 20.4756 15.1986
1 24.6047 19.6819 15.1986
1 24.5869 20.5039 14.4139
1 23.8226 19.6768 14.3973
1 25.3984 20.4756 15.1986
1 26.1921 19.6819 15.1986
1 26.1976 20.4794 14.4116
1 25.3752 19.7067 14.423
1 26.9858 20.4756 15.1986
1 27.7795 19.6819 15.1986
1 27.7866 20.4721 14.4051
1 26.9704 19.698 14.4291
1 28.5732 20.4756 15.1986
1 29.3669 19.6819 15.1986
1 29.2865 20.4863 14.379
1 28.5311 19.6898 14.3934
1 1.30597e-09 18.8882 15.1986
1 0.793701 18.0945 15.1986
1 0.830478 18.8877 14.3689
1 0.0747482 18.0795 14.3757
1 1.5874 18.8882 15.1986
1 2.3811 18.0945 15.1986
1 2.38538 18.8978 14.3912
1 1.57301 18.0965 14.3852
1 3.1748 18.8882 15.1986
1 3.9685 18.0945 15.1986
1 3.99564 18.9091 14.4349
1 3.15636 18.1192 14.4095
1 4.7622 18.8882 15.1986
1 5.5559 18.0945 15.1986
1 5.57152 18.8877 14.395
1 4.79073 18.0926 14.4233
1 6.3496 18.8882 15.1986
1 7.1433 18.0945 15.1986
1 7.16761 18.8685 14.4147
1 6.35594 18.0833 14.4018
1 7.93701 18.8882 15.1986
1 8.73071 18.0945 15.1986
1 8.7281 18.8898 14.416
1 7.9384 18.0858 14.4141
1 9.52441 18.8882 15.1986
1 10.3181 18.0945 15.1986
1 10.3228 18.9057 14.3825
1 9.52932 18.0955 14.4164
1 11.1118 18.8882 15.1986
1 11.9055 18.0945 15.1986
1 11.9089 18.8876 14.3854
1 11.1281 18.1199 14.4109
1 12.6992 18.8882 15.1986
1 13.4929 18.0945 15.1986
1 13.4914 18.8782 14.4112
1 12.7055 18.077 14.3966
1 14.2866 18.8882 15.1986
1 15.0803 18.0945 15.1986
1 15.0702 18.9284 14.4248
1 14.3037 18.0974 14.3939
1 15.874 18.8882 15.1986
1 16.6677 18.0945 15.1986
1 16.6798 18.9169 14.4288
1 15.9 18.1072 14.4165
1 17.4614 18.8882 15.1986
1 18.2551 18.0945 15.1986
1 18.2323 18.852 14.418
1 17.4575 18.1169 14.3983
1 19.0488 18.8882 15.1986
1 19.8425 18.0945 15.1986
1 19.8351 18.9071 14.4023
1 19.052 18.0991 14.4099
1 20.6362 18.8882 15.1986
1 21.4299 18.0945 15.1986
1 21.427 18.8695 14.3983
1 20.631 18.0965 14.4087
1 22.2236 18.8882 15.1986
1 23.0173 18.0945 15.1986
1 23.0062 18.9281 14.4035
1 22.2372 18.0969 14.3983
1 23.811 18.8882 15.1986
1 24.6047 18.0945 15.1986
1 24.5916 18.8866 14.4032
1 23.8131 18.0874 14.4099
1 25.3984 18.8882 15.1986
1 26.1921 18.0945 15.1986
1 26.1845 18.9118 14.4026
1 25.3806 18.0895 14.3741
1 26.9858 18.8882 15.1986
1 27.7795 18.0945 15.1986
1 27.7611 18.8781 14.3949
1 26.961 18.0876 14.4178
1 28.5732 18.8882 15.1986
1 29.3669 18.0945 15.1986
1 29.3045 18.8793 14.3556
1 28.539 18.0842 14.4111
1 1.30597e-09 17.3008 15.1986
1 0.793701 16.5071 15.1986
1 0.81331 17.2771 14.4137
1 0.0490397 16.4953 14.3821
1 1.5874 17.3008 15.1986
1 2.3811 16.5071 15.1986
1 2.3734 17.3286 14.412
1 1.59887 16.4931 14.4037
1 3.1748 17.3008 15.1986
1 3.9685 16.5071 15.1986
1 3.97612 17.3188 14.3796
1 3.18558 16.5118 14.4431
1 4.7622 17.3008 15.1986
1 5.5559 16.5071 15.1986
1 5.56708 17.2884 14.4225
1 4.74823 16.5023 14.3866
1 6.3496 17.3008 15.1986
1 7.1433 16.5071 15.1986
1 7.14702 17.296 14.4186
1 6.36472 16.499 14.424
1 7.93701 17.3008 15.1986
1 8.73071 16.5071 15.1986
1 8.74619 17.3232 14.4125
1 7.94418 16.4944 14.4002
1 9.52441 17.3008 15.1986
1 10.3181 16.5071 15.1986
1 10.2887 17.3309 14.4143
1 9.51516 16.5116 14.4053
1 11.1118 17.3008 15.1986
1 11.9055 16.5071 15.1986
1 11.8914 17.3298 14.3983
1 11.1094 16.5175 14.4282
1 12.6992 17.3008 15.1986
1 13.4929 16.5071 15.1986
1 13.5248 17.3276 14.4039
1 12.69 16.5056 14.3985
1 14.2866 17.3008 15.1986
1 15.0803 16.5071 15.1986
1 15.0987 17.2949 14.4338
1 14.2945 16.5007 14.3858
1 15.874 17.3008 15.1986
1 16.6677 16.5071 15.1986
1 16.6816 17.2931 14.4002
1 15.8821 16.4915 14.4371
1 17.4614 17.3008 15.1986
1 18.2551 16.5071 15.1986
1 18.2326 17.3141 14.3999
1 17.4738 16.4936 14.4068
1 19.0488 17.3008 15.1986
1 19.8425 16.5071 15.1986
1 19.8345 17.2958 14.4147
1 19.0485 16.5191 14.3861
1 20.6362 17.3008 15.1986
1 21.4299 16.5071 15.1986
1 21.4248 17.2982 14.4192
1 20.6414 16.5037 14.3889
1 22.2236 17.3008 15.1986
1 23.0173 16.5071 15.1986
1 23.0357 17.2682 14.4156
1 22.2429 16.52 14.415
1 23.811 17.3008 15.1986
1 24.6047 16.5071 15.1986
1 24.5978 17.306 14.3947
1 23.831 16.5035 14.3991
1 25.3984 17.3008 15.1986
1 26.1921 16.5071 15.1986
1 26.2095 17.2971 14.409
1 25.3654 16.5045 14.4103
1 26.9858 17.3008 15.1986
1 27.7795 16.5071 15.1986
1 27.766 17.289 14.4234
1 26.9654 16.5187 14.4201
1 28.5732 17.3008 15.1986
1 29.3669 16.5071 15.1986
1 29.3061 17.3166 14.3824
1 28.5435 16.4819 14.4193
1 1.30597e-09 15.7134 15.1986
1 0.793701 14.9197 15.1986
1 0.821761 15.7145 14.372
1 0.0433823 14.9325 14.383
1 1.5874 15.7134 15.1986
1 2.3811 14.9197 15.1986
1 2.39191 15.7132 14.3974
1 1.61071 14.9264 14.4168
1 3.1748 15.7134 15.1986
1 3.9685 14.9197 15.1986
1 3.99118 15.7178 14.4209
1 3.19491 14.9155 14.4179
1 4.7622 15.7134 15.1986
1 5.5559 14.9197 15.1986
1 5.53803 15.7458 14.3911
1 4.75504 14.9101 14.4099
1 6.3496 15.7134 15.1986
1 7.1433 14.9197 15.1986
1 7.13311 15.719 14.3968
1 6.35002 14.9276 14.4239
1 7.93701 15.7134 15.1986
1 8.73071 14.9197 15.1986
1 8.70991 15.7135 14.3925
1 7.92486 14.9153 14.4122
1 9.52441 15.7134 15.1986
1 10.3181 14.9197 15.1986
1 10.3308 15.7056 14.4176
1 9.53172 14.9346 14.4004
1 11.1118 15.7134 15.1986
1 11.9055 14.9197 15.1986
1 11.8745 15.7426 14.4091
1 11.0937 14.9302 14.4246
1 12.6992 15.7134 15.1986
1 13.4929 14.9197 15.1986
1 13.5057 15.7278 14.403
1 12.7163 14.9482 14.4446
1 14.2866 15.7134 15.1986
1 15.0803 14.9197 15.1986
1 15.077 15.7237 14.3992
1 14.2881 14.9219 14.3965
1 15.874 15.7134 15.1986
1 16.6677 14.9197 15.1986
1 16.6621 15.7099 14.4027
1 15.8814 14.904 14.4069
1 17.4614 15.7134 15.1986
1 18.2551 14.9197 15.1986
1 18.2875 15.7217 14.4059
1 17.4474 14.9248 14.4158
1 19.0488 15.7134 15.1986
1 19.8425 14.9197 15.1986
1 19.8354 15.7247 14.4017
1 19.0671 14.9119 14.4327
1 20.6362 15.7134 15.1986
1 21.4299 14.9197 15.1986
1 21.4161 15.7177 14.3947
1 20.6464 14.9206 14.3995
1 22.2236 15.7134 15.1986
1 23.0173 14.9197 15.1986
1 22.9716 15.7057 14.4165
1 22.2018 14.9165 14.4152
1 23.811 15.7134 15.1986
1 24.6047 14.9197 15.1986
1 24.5994 15.7073 14.4019
1 23.7876 14.9086 14.4054
1 25.3984 15.7134 15.1986
1 26.1921 14.9197 15.1986
1 26.1627 15.7245 14.4344
1 25.3908 14.9112 14.3952
1 26.9858 15.7134 15.1986
1 27.7795 14.9197 15.1986
1 27.7688 15.7197 14.3958
1 26.9894 14.906 14.3842
1 28.5732 15.7134 15.1986
1 29.3669 14.9197 15.1986
1 29.2862 15.6993 14.3706
1 28.5498 14.9157 14.427
1 1.30597e-09 14.126 15.1986
1 0.793701 13.3323 15.1986
1 0.794545 14.1206 14.3888
1 0.0523546 13.3337 14.3504
1 1.5874 14.126 15.1986
1 2.3811 13.3323 15.1986
1 2.40973 14.1319 14.3986
1 1.60502 13.3497 14.4086
1 3.1748 14.126 15.1986
1 3.9685 13.3323 15.1986
1 3.99243 14.1361 14.3938
1 3.19745 13.3385 14.4229
1 4.7622 14.126 15.1986
1 5.5559 13.3323 15.1986
1 5.53183 14.1262 14.4321
1 4.7448 13.3319 14.4211
1 6.3496 14.126 15.1986
1 7.1433 13.3323 15.1986
1 7.12881 14.1172 14.4209
1 6.33813 13.3259 14.4062
1 7.93701 14.126 15.1986
1 8.73071 13.3323 15.1986
1 8.7388 14.1509 14.4037
1 7.92331 13.322 14.3972
1 9.52441 14.126 15.1986
1 10.3181 13.3323 15.1986
1 10.3144 14.1201 14.4377
1 9.51061 13.3595 14.4041
1 11.1118 14.126 15.1986
1 11.9055 13.3323 15.1986
1 11.8978 14.107 14.4338
1 11.1374 13.3531 14.4002
1 12.6992 14.126 15.1986
1 13.4929 13.3323 15.1986
1 13.5028 14.1281 14.4092
1 12.7103 13.3405 14.3894
1 14.2866 14.126 15.1986
1 15.0803 13.3323 15.1986
1 15.0697 14.129 14.4081
1 14.2859 13.3202 14.4002
1 15.874 14.126 15.1986
1 16.6677 13.3323 15.1986
1 16.6567 14.1079 14.4085
1 15.8731 13.3069 14.3943
1 17.4614 14.126 15.1986
1 18.2551 13.3323 15.1986
1 18.2599 14.1272 14.4424
1 17.4582 13.3224 14.4093
1 19.0488 14.126 15.1986
1 19.8425 13.3323 15.1986
1 19.8552 14.103 14.3939
1 19.0268 13.3446 14.403
1 20.6362 14.126 15.1986
1 21.4299 13.3323 15.1986
1 21.424 14.1248 14.4432
1 20.6412 13.318 14.4174
1 22.2236 14.126 15.1986
1 23.0173 13.3323 15.1986
1 23.0176 14.1096 14.4157
1 22.214 13.3254 14.4076
1 23.811 14.126 15.1986
1 24.6047 13.3323 15.1986
1 24.603 14.1127 14.4235
1 23.8135 13.3473 14.3895
1 25.3984 14.126 15.1986
1 26.1921 13.3323 15.1986
1 26.1831 14.1123 14.4253
1 25.3925 13.3135 14.4013
1 26.9858 14.126 15.1986
1 27.7795 13.3323 15.1986
1 27.7663 14.1187 14.4239
1 26.9715 13.3144 14.3898
1 28.5732 14.126 15.1986
1 29.3669 13.3323 15.1986
1 29.2999 14.1434 14.3831
1 28.564 13.3297 14.3892
1 1.30597e-09 12.5386 15.1986
1 0.793701 11.7449 15.1986
1 0.818606 12.5445 14.4131
1 0.0507619 11.7448 14.3894
1 1.5874 12.5386 15.1986
1 2.3811 11.7449 15.1986
1 2.37574 12.5336 14.4098
1 1.62186 11.7452 14.4251
1 3.1748 12.5386 15.1986
1 3.9685 11.7449 15.1986
1 3.98703 12.5327 14.3925
1 3.20161 11.7244 14.4143
1 4.7622 12.5386 15.1986
1 5.5559 11.7449 15.1986
1 5.52951 12.5369 14.4113
1 4.7799 11.7319 14.4234
1 6.3496 12.5386 15.1986
1 7.1433 11.7449 15.1986
1 7.135 12.5339 14.4161
1 6.36329 11.706 14.4109
1 7.93701 12.5386 15.1986
1 8.73071 11.7449 15.1986
1 8.71438 12.5177 14.4226
1 7.94722 11.7486 14.3962
1 9.52441 12.5386 15.1986
1 10.3181 11.7449 15.1986
1 10.2994 12.5158 14.3911
1 9.52428 11.7508 14.415
1 11.1118 12.5386 15.1986
1 11.9055 11.7449 15.1986
1 11.9229 12.5289 14.4233
1 11.1022 11.7572 14.4046
1 12.6992 12.5386 15.1986
1 13.4929 11.7449 15.1986
1 13.4905 12.5181 14.398
1 12.6822 11.7528 14.4314
1 14.2866 12.5386 15.1986
1 15.0803 11.7449 15.1986
1 15.082 12.5567 14.4051
1 14.287 11.7648 14.4017
1 15.874 12.5386 15.1986
1 16.6677 11.7449 15.1986
1 16.6742 12.5338 14.4006
1 15.8784 11.7479 14.3964
1 17.4614 12.5386 15.1986
1 18.2551 11.7449 15.1986
1 18.2714 12.5388 14.3947
1 17.4575 11.7416 14.4104
1 19.0488 12.5386 15.1986
1 19.8425 11.7449 15.1986
1 19.8216 12.5708 14.4081
1 19.0405 11.7449 14.4016
1 20.6362 12.5386 15.1986
1 21.4299 11.7449 15.1986
1 21.4041 12.5298 14.4067
1 20.6245 11.7366 14.4405
1 22.2236 12.5386 15.1986
1 23.0173 11.7449 15.1986
1 23.0245 12.52 14.392
1 22.2102 11.7506 14.4027
1 23.811 12.5386 15.1986
1 24.6047 11.7449 15.1986
1 24.5979 12.5617 14.4102
1 23.8206 11.7535 14.3904
1 25.3984 12.5386 15.1986
1 26.1921 11.7449 15.1986
1 26.1774 12.5681 14.4201
1 25.3931 11.7458 14.4221
1 26.9858 12.5386 15.1986
1 27.7795 11.7449 15.1986
1 27.7574 12.5358 14.4072
1 26.9718 11.7633 14.4044
1 28.5732 12.5386 15.1986
1 29.3669 11.7449 15.1986
1 29.2922 12.5226 14.3934
1 28.5442 11.7607 14.4183
1 1.30597e-09 10.9512 15.1986
1 0.793701 10.1575 15.1986
1 0.821938 10.9318 14.4053
1 0.0524392 10.1602 14.3834
1 1.5874 10.9512 15.1986
1 2.3811 10.1575 15.1986
1 2.40395 10.9564 14.4001
1 1.60764 10.152 14.4249
1 3.1748 10.9512 15.1986
1 3.9685 10.1575 15.1986
1 3.97366 10.9556 14.409
1 3.17351 10.1494 14.4193
1 4.7622 10.9512 15.1986
1 5.5559 10.1575 15.1986
1 5.56462 10.9157 14.4104
1 4.73091 10.1491 14.3922
1 6.3496 10.9512 15.1986
1 7.1433 10.1575 15.1986
1 7.16411 10.9355 14.4077
1 6.37214 10.1607 14.4046
1 7.93701 10.9512 15.1986
1 8.73071 10.1575 15.1986
1 8.73578 10.958 14.4157
1 7.92555 10.1382 14.4298
1 9.52441 10.9512 15.1986
1 10.3181 10.1575 15.1986
1 10.316 10.948 14.4199
1 9.53553 10.1512 14.3893
1 11.1118 10.9512 15.1986
1 11.9055 10.1575 15.1986
1 11.8768 10.9538 14.3911
1 11.1043 10.1553 14.4078
1 12.6992 10.9512 15.1986
1 13.4929 10.1575 15.1986
1 13.5068 10.9574 14.4225
1 12.7097 10.1811 14.4249
1 14.2866 10.9512 15.1986
1 15.0803 10.1575 15.1986
1 15.0777 10.9677 14.4072
1 14.3181 10.1422 14.4096
1 15.874 10.9512 15.1986
1 16.6677 10.1575 15.1986
1 16.6613 10.9143 14.415
1 15.8762 10.1726 14.3962
1 17.4614 10.9512 15.1986
1 18.2551 10.1575 15.1986
1 18.2404 10.918 14.4389
1 17.454 10.1287 14.4142
1 19.0488 10.9512 15.1986
1 19.8425 10.1575 15.1986
1 19.8334 10.967 14.4213
1 19.0638 10.1646 14.3995
1 20.6362 10.9512 15.1986
1 21.4299 10.1575 15.1986
1 21.4267 10.9632 14.4131
1 20.6245 10.147 14.4139
1 22.2236 10.9512 15.1986
1 23.0173 10.1575 15.1986
1 23.0203 10.9631 14.4167
1 22.2035 10.1486 14.4141
1 23.811 10.9512 15.1986
1 24.6047 10.1575 15.1986
1 24.6024 10.955 14.3955
1 23.8021 10.141 14.4025
1 25.3984 10.9512 15.1986
1 26.1921 10.1575 15.1986
1 26.1706 10.9509 14.4109
1 25.3794 10.1627 14.4258
1 26.9858 10.9512 15.1986
1 27.7795 10.1575 15.1986
1 27.7767 10.948 14.4021
1 26.9881 10.1427 14.4093
1 28.5732 10.9512 15.1986
1 29.3669 10.1575 15.1986
1 29.2867 10.953 14.3994
1 28.5362 10.147 14.3864
1 1.30597e-09 9.36379 15.1986
1 0.793701 8.57009 15.1986
1 0.81924 9.38084 14.3837
1 0.0575847 8.56236 14.3604
1 1.5874 9.36379 15.1986
1 2.3811 8.57009 15.1986
1 2.38324 9.34909 14.4071
1 1.60524 8.57546 14.3979
1 3.1748 9.36379 15.1986
1 3.9685 8.57009 15.1986
1 3.93898 9.35886 14.4131
1 3.17148 8.57214 14.3999
1 4.7622 9.36379 15.1986
1 5.5559 8.57009 15.1986
1 5.5581 9.3584 14.4012
1 4.73558 8.56962 14.3873
1 6.3496 9.36379 15.1986
1 7.1433 8.57009 15.1986
1 7.13094 9.34085 14.403
1 6.32978 8.57157 14.3943
1 7.93701 9.36379 15.1986
1 8.73071 8.57009 15.1986
1 8.74348 9.35108 14.4018
1 7.93017 8.56454 14.4057
1 9.52441 9.36379 15.1986
1 10.3181 8.57009 15.1986
1 10.3209 9.3726 14.4051
1 9.53037 8.56772 14.4301
1 11.1118 9.36379 15.1986
1 11.9055 8.57009 15.1986
1 11.9475 9.39134 14.4028
1 11.1048 8.54782 14.4038
1 12.6992 9.36379 15.1986
1 13.4929 8.57009 15.1986
1 13.5079 9.36713 14.4059
1 12.6793 8.57407 14.4343
1 14.2866 9.36379 15.1986
1 15.0803 8.57009 15.1986
1 15.0886 9.37243 14.4035
1 14.3077 8.55437 14.3937
1 15.874 9.36379 15.1986
1 16.6677 8.57009 15.1986
1 16.6672 9.35312 14.3919
1 15.8556 8.57007 14.4263
1 17.4614 9.36379 15.1986
1 18.2551 8.57009 15.1986
1 18.2608 9.35754 14.4048
1 17.4682 8.57613 14.396
1 19.0488 9.36379 15.1986
1 19.8425 8.57009 15.1986
1 19.8304 9.32938 14.4107
1 19.0322 8.5842 14.3971
1 20.6362 9.36379 15.1986
1 21.4299 8.57009 15.1986
1 21.4438 9.3415 14.3987
1 20.6416 8.57518 14.4057
1 22.2236 9.36379 15.1986
1 23.0173 8.57009 15.1986
1 23.0114 9.37065 14.4095
1 22.2075 8.58502 14.3928
1 23.811 9.36379 15.1986
1 24.6047 8.57009 15.1986
1 24.6001 9.34418 14.4033
1 23.8017 8.55469 14.4126
1 25.3984 9.36379 15.1986
1 26.1921 8.57009 15.1986
1 26.1778 9.35321 14.4178
1 25.395 8.57306 14.4386
1 26.9858 9.36379 15.1986
1 27.7795 8.57009 15.1986
1 27.7702 9.37229 14.4033
1 26.966 8.55397 14.3924
1 28.5732 9.36379 15.1986
1 29.3669 8.57009 15.1986
1 29.3065 9.37485 14.3717
1 28.5449 8.56627 14.3979
1 1.30597e-09 7.77639 15.1986
1 0.793701 6.98268 15.1986
1 0.830459 7.80247 14.3941
1 0.0531348 6.96426 14.3637
1 1.5874 7.77639 15.1986
1 2.3811 6.98268 15.1986
1 2.38812 7.81317 14.4235
1 1.60789 6.98207 14.386
1 3.1748 7.77639 15.1986
1 3.9685 6.98268 15.1986
1 3.97299 7.77049 14.4274
1 3.16686 6.97978 14.411
1 4.7622 7.77639 15.1986
1 5.5559 6.98268 15.1986
1 5.52398 7.79032 14.3943
1 4.75043 6.9667 14.3916
1 6.3496 7.77639 15.1986
1 7.1433 6.98268 15.1986
1 7.10236 7.75525 14.4106
1 6.34291 6.98699 14.4029
1 7.93701 7.77639 15.1986
1 8.73071 6.98268 15.1986
1 8.75144 7.77673 14.4115
1 7.94684 6.97632 14.3909
1 9.52441 7.77639 15.1986
1 10.3181 6.98268 15.1986
1 10.3284 7.75549 14.42
1 9.50112 6.98672 14.4262
1 11.1118 7.77639 15.1986
1 11.9055 6.98268 15.1986
1 11.9193 7.79283 14.4143
1 11.109 6.99543 14.3992
1 12.6992 7.77639 15.1986
1 13.4929 6.98268 15.1986
1 13.5019 7.78823 14.4087
1 12.6996 6.99231 14.3833
1 14.2866 7.77639 15.1986
1 15.0803 6.98268 15.1986
1 15.0551 7.77576 14.3787
1 14.2834 6.98769 14.4037
1 15.874 7.77639 15.1986
1 16.6677 6.98268 15.1986
1 16.6675 7.76686 14.4194
1 15.8479 6.99525 14.3941
1 17.4614 7.77639 15.1986
1 18.2551 6.98268 15.1986
1 18.2865 7.78356 14.4096
1 17.4618 6.99249 14.4021
1 19.0488 7.77639 15.1986
1 19.8425 6.98268 15.1986
1 19.849 7.78364 14.4061
1 19.0701 6.99973 14.4001
1 20.6362 7.77639 15.1986
1 21.4299 6.98268 15.1986
1 21.448 7.77121 14.3987
1 20.6402 7.01684 14.4136
1 22.2236 7.77639 15.1986
1 23.0173 6.98268 15.1986
1 23.0218 7.79288 14.4008
1 22.2325 7.00065 14.4012
1 23.811 7.77639 15.1986
1 24.6047 6.98268 15.1986
1 24.6099 7.79425 14.415
1 23.8005 6.99652 14.4017
1 25.3984 7.77639 15.1986
1 26.1921 6.98268 15.1986
1 26.1939 7.76773 14.3825
1 25.4204 6.98057 14.4142
1 26.9858 7.77639 15.1986
1 27.7795 6.98268 15.1986
1 27.7803 7.77555 14.4003
1 26.9811 6.99712 14.3981
1 28.5732 7.77639 15.1986
1 29.3669 6.98268 15.1986
1 29.2929 7.76805 14.3572
1 28.5702 6.98167 14.403
1 1.30597e-09 6.18898 15.1986
1 0.793701 5.39528 15.1986
1 0.82619 6.18292 14.3741
1 0.0524899 5.38572 14.38
1 1.5874 6.18898 15.1986
1 2.3811 5.39528 15.1986
1 2.37883 6.19723 14.4074
1 1.58016 5.38925 14.4392
1 3.1748 6.18898 15.1986
1 3.9685 5.39528 15.1986
1 3.97066 6.16597 14.3843
1 3.17576 5.39292 14.4063
1 4.7622 6.18898 15.1986
1 5.5559 5.39528 15.1986
1 5.56375 6.21118 14.4148
1 4.78731 5.37576 14.4287
1 6.3496 6.18898 15.1986
1 7.1433 5.39528 15.1986
1 7.15795 6.18711 14.3857
1 6.32643 5.4044 14.4019