9376
Atoms. Timestep: 200000
1 25 3.55271e-15 10.5973
1 25.7937 29.2063 10.5973
1 25.8044 29.9277 9.76886
1 25.0554 29.1513 9.76948
1 26.5874 3.55271e-15 10.5973
1 27.3811 29.2063 10.5973
1 27.4137 29.9207 9.75831
1 26.5857 29.1854 9.78651
1 28.1748 3.55271e-15 10.5973
1 28.9685 29.2063 10.5973
1 28.9792 29.9498 9.76816
1 28.1984 29.1829 9.78965
1 29.7622 3.55271e-15 10.5973
1 0.555904 29.2063 10.5973
1 0.582766 29.9354 9.75676
1 29.748 29.1791 9.80986
1 1.3496 3.55271e-15 10.5973
1 2.1433 29.2063 10.5973
1 2.14161 29.9344 9.76846
1 1.36279 29.171 9.77596
1 2.93701 3.55271e-15 10.5973
1 3.73071 29.2063 10.5973
1 3.70221 29.9344 9.77819
1 2.92323 29.1785 9.79015
1 4.52441 3.55271e-15 10.5973
1 5.31811 29.2063 10.5973
1 5.27947 29.9536 9.74509
1 4.49835 29.1788 9.82028
1 6.11181 3.55271e-15 10.5973
1 6.90551 29.2063 10.5973
1 6.90942 29.9177 9.76765
1 6.11005 29.1793 9.81135
1 7.69921 3.55271e-15 10.5973
1 8.49291 29.2063 10.5973
1 8.51968 29.9176 9.77629
1 7.7173 29.1735 9.81239
1 9.28661 3.55271e-15 10.5973
1 10.0803 29.2063 10.5973
1 10.0688 29.9463 9.76216
1 9.29754 29.1703 9.77644
1 10.874 3.55271e-15 10.5973
1 11.6677 29.2063 10.5973
1 11.6614 29.9257 9.75341
1 10.8631 29.1963 9.7794
1 12.4614 3.55271e-15 10.5973
1 13.2551 29.2063 10.5973
1 13.231 29.9563 9.73099
1 12.4701 29.1696 9.79471
1 14.0488 3.55271e-15 10.5973
1 14.8425 29.2063 10.5973
1 14.8328 29.9365 9.78629
1 14.0459 29.1805 9.83658
1 15.6362 3.55271e-15 10.5973
1 16.4299 29.2063 10.5973
1 16.4388 29.9429 9.75332
1 15.6532 29.1831 9.80699
1 17.2236 3.55271e-15 10.5973
1 18.0173 29.2063 10.5973
1 18.0144 29.9135 9.78636
1 17.23 29.1533 9.79474
1 18.811 3.55271e-15 10.5973
1 19.6047 29.2063 10.5973
1 19.5971 29.9246 9.77272
1 18.8117 29.1768 9.78459
1 20.3984 3.55271e-15 10.5973
1 21.1921 29.2063 10.5973
1 21.1956 29.9598 9.7636
1 20.3747 29.1913 9.78886
1 21.9858 3.55271e-15 10.5973
1 22.7795 29.2063 10.5973
1 22.778 29.9361 9.78347
1 21.965 29.1813 9.83642
1 23.5732 3.55271e-15 10.5973
1 24.3669 29.2063 10.5973
1 24.2934 29.925 9.72288
1 23.5583 29.1583 9.77719
1 25 28.4126 10.5973
1 25.7937 27.6189 10.5973
1 25.8158 28.3901 9.81697
1 25.0768 27.5977 9.77221
1 26.5874 28.4126 10.5973
1 27.3811 27.6189 10.5973
1 27.3786 28.3929 9.82308
1 26.6117 27.6049 9.80528
1 28.1748 28.4126 10.5973
1 28.9685 27.6189 10.5973
1 28.9678 28.4098 9.82302
1 28.1867 27.6128 9.79318
1 29.7622 28.4126 10.5973
1 0.555904 27.6189 10.5973
1 0.521696 28.3971 9.78465
1 29.7565 27.6154 9.79691
1 1.3496 28.4126 10.5973
1 2.1433 27.6189 10.5973
1 2.17038 28.3846 9.795
1 1.34992 27.6371 9.82808
1 2.93701 28.4126 10.5973
1 3.73071 27.6189 10.5973
1 3.72515 28.3907 9.81033
1 2.95165 27.592 9.8079
1 4.52441 28.4126 10.5973
1 5.31811 27.6189 10.5973
1 5.31758 28.4012 9.78687
1 4.54184 27.6005 9.80136
1 6.11181 28.4126 10.5973
1 6.90551 27.6189 10.5973
1 6.90411 28.4106 9.78752
1 6.09028 27.6102 9.81525
1 7.69921 28.4126 10.5973
1 8.49291 27.6189 10.5973
1 8.50265 28.3828 9.81274
1 7.69516 27.5951 9.7901
1 9.28661 28.4126 10.5973
1 10.0803 27.6189 10.5973
1 10.0822 28.4028 9.79631
1 9.27309 27.6222 9.79091
1 10.874 28.4126 10.5973
1 11.6677 27.6189 10.5973
1 11.6755 28.3899 9.8303
1 10.8677 27.6128 9.83045
1 12.4614 28.4126 10.5973
1 13.2551 27.6189 10.5973
1 13.2434 28.4071 9.81571
1 12.4943 27.6302 9.80069
1 14.0488 28.4126 10.5973
1 14.8425 27.6189 10.5973
1 14.8278 28.4147 9.80883
1 14.0674 27.6119 9.80593
1 15.6362 28.4126 10.5973
1 16.4299 27.6189 10.5973
1 16.433 28.4093 9.80754
1 15.634 27.6121 9.79503
1 17.2236 28.4126 10.5973
1 18.0173 27.6189 10.5973
1 18.0191 28.4193 9.81896
1 17.2425 27.6019 9.81832
1 18.811 28.4126 10.5973
1 19.6047 27.6189 10.5973
1 19.6014 28.3925 9.81524
1 18.7997 27.609 9.80456
1 20.3984 28.4126 10.5973
1 21.1921 27.6189 10.5973
1 21.1686 28.3628 9.8105
1 20.3738 27.5991 9.78524
1 21.9858 28.4126 10.5973
1 22.7795 27.6189 10.5973
1 22.7829 28.3994 9.80478
1 21.9818 27.6223 9.80758
1 23.5732 28.4126 10.5973
1 24.3669 27.6189 10.5973
1 24.2832 28.3879 9.77928
1 23.5238 27.5768 9.80869
1 25 26.8252 10.5973
1 25.7937 26.0315 10.5973
1 25.8136 26.8302 9.82363
1 25.0735 26.0359 9.77439
1 26.5874 26.8252 10.5973
1 27.3811 26.0315 10.5973
1 27.3831 26.8185 9.78742
1 26.5921 26.0221 9.80132
1 28.1748 26.8252 10.5973
1 28.9685 26.0315 10.5973
1 28.9606 26.8066 9.78432
1 28.2042 26.0405 9.80368
1 29.7622 26.8252 10.5973
1 0.555904 26.0315 10.5973
1 0.564857 26.809 9.83394
1 29.7721 26.033 9.79444
1 1.3496 26.8252 10.5973
1 2.1433 26.0315 10.5973
1 2.13731 26.8127 9.81025
1 1.37028 26.0136 9.82763
1 2.93701 26.8252 10.5973
1 3.73071 26.0315 10.5973
1 3.71422 26.8193 9.80581
1 2.92671 26.0175 9.80306
1 4.52441 26.8252 10.5973
1 5.31811 26.0315 10.5973
1 5.2923 26.8251 9.811
1 4.54289 26.0075 9.7934
1 6.11181 26.8252 10.5973
1 6.90551 26.0315 10.5973
1 6.89601 26.8153 9.78512
1 6.11355 26.0083 9.80328
1 7.69921 26.8252 10.5973
1 8.49291 26.0315 10.5973
1 8.50455 26.8335 9.82677
1 7.66482 26.0246 9.82033
1 9.28661 26.8252 10.5973
1 10.0803 26.0315 10.5973
1 10.0527 26.8407 9.78351
1 9.2843 26.003 9.80071
1 10.874 26.8252 10.5973
1 11.6677 26.0315 10.5973
1 11.6763 26.8175 9.80432
1 10.8919 26.0214 9.79757
1 12.4614 26.8252 10.5973
1 13.2551 26.0315 10.5973
1 13.2529 26.83 9.78919
1 12.453 26.0305 9.782
1 14.0488 26.8252 10.5973
1 14.8425 26.0315 10.5973
1 14.8482 26.8017 9.8062
1 14.0418 26.0297 9.79321
1 15.6362 26.8252 10.5973
1 16.4299 26.0315 10.5973
1 16.4302 26.8187 9.80502
1 15.6368 26.0329 9.78718
1 17.2236 26.8252 10.5973
1 18.0173 26.0315 10.5973
1 18.0457 26.7911 9.80027
1 17.2284 26.0088 9.80807
1 18.811 26.8252 10.5973
1 19.6047 26.0315 10.5973
1 19.5953 26.8092 9.81112
1 18.8212 26.0299 9.80221
1 20.3984 26.8252 10.5973
1 21.1921 26.0315 10.5973
1 21.1737 26.8188 9.83271
1 20.3896 26.0328 9.81485
1 21.9858 26.8252 10.5973
1 22.7795 26.0315 10.5973
1 22.7539 26.8214 9.81021
1 21.9871 26.0041 9.80499
1 23.5732 26.8252 10.5973
1 24.3669 26.0315 10.5973
1 24.2828 26.8163 9.8005
1 23.5259 26.0339 9.79448
1 25 25.2378 10.5973
1 25.7937 24.4441 10.5973
1 25.8154 25.2488 9.79864
1 25.0773 24.4581 9.77545
1 26.5874 25.2378 10.5973
1 27.3811 24.4441 10.5973
1 27.3978 25.2366 9.78569
1 26.5774 24.4457 9.78803
1 28.1748 25.2378 10.5973
1 28.9685 24.4441 10.5973
1 28.9678 25.2428 9.80146
1 28.1695 24.4332 9.83263
1 29.7622 25.2378 10.5973
1 0.555904 24.4441 10.5973
1 0.56409 25.2557 9.78868
1 29.7792 24.4258 9.82814
1 1.3496 25.2378 10.5973
1 2.1433 24.4441 10.5973
1 2.12961 25.2175 9.81355
1 1.35359 24.4442 9.80279
1 2.93701 25.2378 10.5973
1 3.73071 24.4441 10.5973
1 3.73403 25.2413 9.79336
1 2.93983 24.4591 9.81267
1 4.52441 25.2378 10.5973
1 5.31811 24.4441 10.5973
1 5.31185 25.2231 9.79194
1 4.51287 24.4448 9.80211
1 6.11181 25.2378 10.5973
1 6.90551 24.4441 10.5973
1 6.92305 25.2302 9.79966
1 6.11745 24.4429 9.80374
1 7.69921 25.2378 10.5973
1 8.49291 24.4441 10.5973
1 8.48173 25.251 9.80623
1 7.70224 24.4624 9.815
1 9.28661 25.2378 10.5973
1 10.0803 24.4441 10.5973
1 10.0629 25.2348 9.81997
1 9.30352 24.4525 9.81634
1 10.874 25.2378 10.5973
1 11.6677 24.4441 10.5973
1 11.6684 25.2276 9.80968
1 10.872 24.4313 9.81589
1 12.4614 25.2378 10.5973
1 13.2551 24.4441 10.5973
1 13.2249 25.2445 9.78895
1 12.462 24.4335 9.7966
1 14.0488 25.2378 10.5973
1 14.8425 24.4441 10.5973
1 14.8361 25.229 9.78006
1 14.0204 24.461 9.80884
1 15.6362 25.2378 10.5973
1 16.4299 24.4441 10.5973
1 16.4378 25.2289 9.78141
1 15.6342 24.4529 9.78521
1 17.2236 25.2378 10.5973
1 18.0173 24.4441 10.5973
1 17.9979 25.2471 9.78828
1 17.2315 24.4561 9.78724
1 18.811 25.2378 10.5973
1 19.6047 24.4441 10.5973
1 19.6039 25.2585 9.80477
1 18.8082 24.4446 9.81484
1 20.3984 25.2378 10.5973
1 21.1921 24.4441 10.5973
1 21.187 25.2171 9.81089
1 20.3897 24.4678 9.80091
1 21.9858 25.2378 10.5973
1 22.7795 24.4441 10.5973
1 22.7595 25.2217 9.80982
1 21.9659 24.4356 9.80155
1 23.5732 25.2378 10.5973
1 24.3669 24.4441 10.5973
1 24.3098 25.2198 9.77143
1 23.5205 24.451 9.79646
1 25 23.6504 10.5973
1 25.7937 22.8567 10.5973
1 25.7944 23.659 9.8048
1 25.0711 22.8755 9.78937
1 26.5874 23.6504 10.5973
1 27.3811 22.8567 10.5973
1 27.386 23.6353 9.79614
1 26.5917 22.8391 9.78061
1 28.1748 23.6504 10.5973
1 28.9685 22.8567 10.5973
1 28.9765 23.6467 9.7837
1 28.2074 22.8661 9.80743
1 29.7622 23.6504 10.5973
1 0.555904 22.8567 10.5973
1 0.55503 23.6464 9.79028
1 29.7434 22.864 9.82549
1 1.3496 23.6504 10.5973
1 2.1433 22.8567 10.5973
1 2.1593 23.6692 9.80378
1 1.37014 22.847 9.80336
1 2.93701 23.6504 10.5973
1 3.73071 22.8567 10.5973
1 3.69497 23.6478 9.79309
1 2.92755 22.8575 9.81249
1 4.52441 23.6504 10.5973
1 5.31811 22.8567 10.5973
1 5.32877 23.6485 9.79817
1 4.52095 22.8618 9.78553
1 6.11181 23.6504 10.5973
1 6.90551 22.8567 10.5973
1 6.91278 23.6305 9.8131
1 6.10655 22.8618 9.8151
1 7.69921 23.6504 10.5973
1 8.49291 22.8567 10.5973
1 8.51166 23.6622 9.82015
1 7.72121 22.8644 9.78897
1 9.28661 23.6504 10.5973
1 10.0803 22.8567 10.5973
1 10.0838 23.6509 9.82669
1 9.31042 22.8715 9.83579
1 10.874 23.6504 10.5973
1 11.6677 22.8567 10.5973
1 11.6824 23.6569 9.80422
1 10.8755 22.8504 9.8187
1 12.4614 23.6504 10.5973
1 13.2551 22.8567 10.5973
1 13.2535 23.6373 9.82016
1 12.4521 22.8599 9.80737
1 14.0488 23.6504 10.5973
1 14.8425 22.8567 10.5973
1 14.8169 23.6372 9.81252
1 14.0313 22.8496 9.81213
1 15.6362 23.6504 10.5973
1 16.4299 22.8567 10.5973
1 16.4366 23.661 9.8162
1 15.6374 22.859 9.81647
1 17.2236 23.6504 10.5973
1 18.0173 22.8567 10.5973
1 18.0101 23.6475 9.80061
1 17.2173 22.8844 9.81153
1 18.811 23.6504 10.5973
1 19.6047 22.8567 10.5973
1 19.6451 23.6703 9.81356
1 18.8341 22.8617 9.81978
1 20.3984 23.6504 10.5973
1 21.1921 22.8567 10.5973
1 21.1878 23.6596 9.79861
1 20.3748 22.8585 9.80569
1 21.9858 23.6504 10.5973
1 22.7795 22.8567 10.5973
1 22.7685 23.6125 9.79784
1 21.9702 22.8479 9.79706
1 23.5732 23.6504 10.5973
1 24.3669 22.8567 10.5973
1 24.2993 23.6629 9.75154
1 23.5598 22.8605 9.79779
1 25 22.063 10.5973
1 25.7937 21.2693 10.5973
1 25.8098 22.0401 9.78412
1 25.0529 21.2462 9.78455
1 26.5874 22.063 10.5973
1 27.3811 21.2693 10.5973
1 27.3909 22.0794 9.83437
1 26.6083 21.2621 9.7963
1 28.1748 22.063 10.5973
1 28.9685 21.2693 10.5973
1 28.9985 22.0545 9.79966
1 28.1703 21.2844 9.79101
1 29.7622 22.063 10.5973
1 0.555904 21.2693 10.5973
1 0.559318 22.0691 9.79202
1 29.7804 21.2468 9.80942
1 1.3496 22.063 10.5973
1 2.1433 21.2693 10.5973
1 2.15105 22.0578 9.79309
1 1.34933 21.2733 9.82333
1 2.93701 22.063 10.5973
1 3.73071 21.2693 10.5973
1 3.73129 22.0622 9.81397
1 2.92266 21.2612 9.79333
1 4.52441 22.063 10.5973
1 5.31811 21.2693 10.5973
1 5.33037 22.0705 9.81516
1 4.51297 21.2491 9.80851
1 6.11181 22.063 10.5973
1 6.90551 21.2693 10.5973
1 6.89837 22.039 9.81145
1 6.11136 21.277 9.79087
1 7.69921 22.063 10.5973
1 8.49291 21.2693 10.5973
1 8.4676 22.0677 9.80433
1 7.65977 21.2739 9.78522
1 9.28661 22.063 10.5973
1 10.0803 21.2693 10.5973
1 10.0543 22.0618 9.78742
1 9.28478 21.2615 9.78376
1 10.874 22.063 10.5973
1 11.6677 21.2693 10.5973
1 11.6545 22.053 9.80173
1 10.8293 21.277 9.8165
1 12.4614 22.063 10.5973
1 13.2551 21.2693 10.5973
1 13.2605 22.0564 9.81064
1 12.4292 21.2764 9.79387
1 14.0488 22.063 10.5973
1 14.8425 21.2693 10.5973
1 14.8384 22.0701 9.79139
1 14.0672 21.2713 9.80606
1 15.6362 22.063 10.5973
1 16.4299 21.2693 10.5973
1 16.4026 22.0929 9.816
1 15.646 21.2707 9.80724
1 17.2236 22.063 10.5973
1 18.0173 21.2693 10.5973
1 17.9993 22.0682 9.80859
1 17.1913 21.2913 9.79843
1 18.811 22.063 10.5973
1 19.6047 21.2693 10.5973
1 19.5865 22.0562 9.80807
1 18.7975 21.2727 9.78941
1 20.3984 22.063 10.5973
1 21.1921 21.2693 10.5973
1 21.1828 22.0706 9.80827
1 20.3908 21.2461 9.8083
1 21.9858 22.063 10.5973
1 22.7795 21.2693 10.5973
1 22.7606 22.0829 9.7888
1 21.9719 21.2517 9.804
1 23.5732 22.063 10.5973
1 24.3669 21.2693 10.5973
1 24.2981 22.0793 9.7605
1 23.505 21.2687 9.77472
1 25 20.4756 10.5973
1 25.7937 19.6819 10.5973
1 25.8177 20.4582 9.80441
1 25.0375 19.6422 9.75512
1 26.5874 20.4756 10.5973
1 27.3811 19.6819 10.5973
1 27.3908 20.4767 9.83176
1 26.5943 19.6906 9.78675
1 28.1748 20.4756 10.5973
1 28.9685 19.6819 10.5973
1 28.9911 20.474 9.79016
1 28.1678 19.6855 9.79573
1 29.7622 20.4756 10.5973
1 0.555904 19.6819 10.5973
1 0.562596 20.4768 9.78073
1 29.7723 19.6851 9.81681
1 1.3496 20.4756 10.5973
1 2.1433 19.6819 10.5973
1 2.16233 20.4744 9.79117
1 1.3501 19.6635 9.80663
1 2.93701 20.4756 10.5973
1 3.73071 19.6819 10.5973
1 3.71018 20.4642 9.80532
1 2.91343 19.6659 9.80714
1 4.52441 20.4756 10.5973
1 5.31811 19.6819 10.5973
1 5.3327 20.48 9.79925
1 4.50479 19.6858 9.78281
1 6.11181 20.4756 10.5973
1 6.90551 19.6819 10.5973
1 6.90251 20.4625 9.79898
1 6.09903 19.6918 9.80966
1 7.69921 20.4756 10.5973
1 8.49291 19.6819 10.5973
1 8.48969 20.4885 9.81758
1 7.70678 19.6637 9.79233
1 9.28661 20.4756 10.5973
1 10.0803 19.6819 10.5973
1 10.049 20.4785 9.81092
1 9.31447 19.6611 9.82471
1 10.874 20.4756 10.5973
1 11.6677 19.6819 10.5973
1 11.6537 20.4865 9.79845
1 10.8853 19.6751 9.79755
1 12.4614 20.4756 10.5973
1 13.2551 19.6819 10.5973
1 13.2508 20.4769 9.78593
1 12.4712 19.6796 9.81253
1 14.0488 20.4756 10.5973
1 14.8425 19.6819 10.5973
1 14.84 20.4696 9.78066
1 14.0506 19.6711 9.81193
1 15.6362 20.4756 10.5973
1 16.4299 19.6819 10.5973
1 16.4311 20.465 9.7933
1 15.63 19.663 9.80078
1 17.2236 20.4756 10.5973
1 18.0173 19.6819 10.5973
1 18.0045 20.4603 9.79194
1 17.2184 19.6951 9.80392
1 18.811 20.4756 10.5973
1 19.6047 19.6819 10.5973
1 19.5871 20.4781 9.78589
1 18.8041 19.6928 9.79127
1 20.3984 20.4756 10.5973
1 21.1921 19.6819 10.5973
1 21.2171 20.4678 9.79618
1 20.4149 19.681 9.8076
1 21.9858 20.4756 10.5973
1 22.7795 19.6819 10.5973
1 22.7702 20.4601 9.78704
1 21.9612 19.6776 9.81982
1 23.5732 20.4756 10.5973
1 24.3669 19.6819 10.5973
1 24.2869 20.4447 9.7845
1 23.5513 19.7046 9.7592
1 25 18.8882 10.5973
1 25.7937 18.0945 10.5973
1 25.8019 18.893 9.78191
1 25.0947 18.0858 9.76651
1 26.5874 18.8882 10.5973
1 27.3811 18.0945 10.5973
1 27.3734 18.8778 9.7966
1 26.6095 18.0826 9.79913
1 28.1748 18.8882 10.5973
1 28.9685 18.0945 10.5973
1 28.9447 18.8673 9.82007
1 28.1573 18.0948 9.79621
1 29.7622 18.8882 10.5973
1 0.555904 18.0945 10.5973
1 0.571703 18.8737 9.80104
1 29.7287 18.0626 9.80425
1 1.3496 18.8882 10.5973
1 2.1433 18.0945 10.5973
1 2.17404 18.8873 9.78107
1 1.37289 18.0724 9.80067
1 2.93701 18.8882 10.5973
1 3.73071 18.0945 10.5973
1 3.72894 18.8903 9.82669
1 2.92776 18.0815 9.77465
1 4.52441 18.8882 10.5973
1 5.31811 18.0945 10.5973
1 5.32292 18.8973 9.8281
1 4.51204 18.0854 9.79372
1 6.11181 18.8882 10.5973
1 6.90551 18.0945 10.5973
1 6.89751 18.8962 9.81597
1 6.09223 18.1246 9.80028
1 7.69921 18.8882 10.5973
1 8.49291 18.0945 10.5973
1 8.49772 18.8652 9.83341
1 7.68334 18.098 9.7998
1 9.28661 18.8882 10.5973
1 10.0803 18.0945 10.5973
1 10.0976 18.8961 9.78555
1 9.27337 18.0965 9.77708
1 10.874 18.8882 10.5973
1 11.6677 18.0945 10.5973
1 11.6742 18.8977 9.78776
1 10.9057 18.0955 9.80242
1 12.4614 18.8882 10.5973
1 13.2551 18.0945 10.5973
1 13.2837 18.8555 9.79539
1 12.4664 18.0828 9.78357
1 14.0488 18.8882 10.5973
1 14.8425 18.0945 10.5973
1 14.8466 18.8701 9.81295
1 14.0409 18.0758 9.80463
1 15.6362 18.8882 10.5973
1 16.4299 18.0945 10.5973
1 16.4035 18.8755 9.79487
1 15.6092 18.1007 9.7912
1 17.2236 18.8882 10.5973
1 18.0173 18.0945 10.5973
1 17.9975 18.8951 9.78505
1 17.2197 18.1122 9.81644
1 18.811 18.8882 10.5973
1 19.6047 18.0945 10.5973
1 19.5928 18.8953 9.81472
1 18.8258 18.1161 9.80446
1 20.3984 18.8882 10.5973
1 21.1921 18.0945 10.5973
1 21.2111 18.8984 9.80622
1 20.4045 18.123 9.80017
1 21.9858 18.8882 10.5973
1 22.7795 18.0945 10.5973
1 22.7726 18.8983 9.82077
1 21.9944 18.1002 9.8239
1 23.5732 18.8882 10.5973
1 24.3669 18.0945 10.5973
1 24.2733 18.8505 9.78029
1 23.5235 18.0842 9.78731
1 25 17.3008 10.5973
1 25.7937 16.5071 10.5973
1 25.8075 17.2941 9.79967
1 25.0438 16.4941 9.74673
1 26.5874 17.3008 10.5973
1 27.3811 16.5071 10.5973
1 27.4046 17.2729 9.81225
1 26.5886 16.5124 9.79238
1 28.1748 17.3008 10.5973
1 28.9685 16.5071 10.5973
1 28.9619 17.2888 9.8082
1 28.1883 16.5048 9.80264
1 29.7622 17.3008 10.5973
1 0.555904 16.5071 10.5973
1 0.559826 17.3091 9.82145
1 29.7762 16.4825 9.82828
1 1.3496 17.3008 10.5973
1 2.1433 16.5071 10.5973
1 2.15384 17.3042 9.82386
1 1.34181 16.5047 9.80137
1 2.93701 17.3008 10.5973
1 3.73071 16.5071 10.5973
1 3.70746 17.3073 9.80041
1 2.95661 16.522 9.8261
1 4.52441 17.3008 10.5973
1 5.31811 16.5071 10.5973
1 5.3215 17.2772 9.8142
1 4.50821 16.5335 9.84539
1 6.11181 17.3008 10.5973
1 6.90551 16.5071 10.5973
1 6.89237 17.2894 9.80613
1 6.12474 16.4952 9.81637
1 7.69921 17.3008 10.5973
1 8.49291 16.5071 10.5973
1 8.49235 17.2913 9.80321
1 7.71575 16.5121 9.81732
1 9.28661 17.3008 10.5973
1 10.0803 16.5071 10.5973
1 10.0892 17.2781 9.82073
1 9.27648 16.5178 9.81322
1 10.874 17.3008 10.5973
1 11.6677 16.5071 10.5973
1 11.7019 17.2859 9.805
1 10.8691 16.4931 9.78905
1 12.4614 17.3008 10.5973
1 13.2551 16.5071 10.5973
1 13.2374 17.2947 9.79246
1 12.4699 16.5097 9.79986
1 14.0488 17.3008 10.5973
1 14.8425 16.5071 10.5973
1 14.8281 17.32 9.79366
1 14.0632 16.5052 9.79453
1 15.6362 17.3008 10.5973
1 16.4299 16.5071 10.5973
1 16.4105 17.3245 9.80047
1 15.6365 16.5166 9.81556
1 17.2236 17.3008 10.5973
1 18.0173 16.5071 10.5973
1 18.0227 17.3252 9.78862
1 17.2281 16.5221 9.83022
1 18.811 17.3008 10.5973
1 19.6047 16.5071 10.5973
1 19.5836 17.2994 9.81907
1 18.7984 16.513 9.78842
1 20.3984 17.3008 10.5973
1 21.1921 16.5071 10.5973
1 21.1853 17.3188 9.79146
1 20.3883 16.5178 9.8233
1 21.9858 17.3008 10.5973
1 22.7795 16.5071 10.5973
1 22.7558 17.2631 9.82213
1 21.9666 16.4886 9.81853
1 23.5732 17.3008 10.5973
1 24.3669 16.5071 10.5973
1 24.299 17.3249 9.76575
1 23.5462 16.5025 9.78901
1 25 15.7134 10.5973
1 25.7937 14.9197 10.5973
1 25.8355 15.7007 9.80778
1 25.0596 14.9039 9.76086
1 26.5874 15.7134 10.5973
1 27.3811 14.9197 10.5973
1 27.3615 15.6997 9.81154
1 26.602 14.94 9.80224
1 28.1748 15.7134 10.5973
1 28.9685 14.9197 10.5973
1 28.9825 15.7245 9.79265
1 28.1891 14.9215 9.8308
1 29.7622 15.7134 10.5973
1 0.555904 14.9197 10.5973
1 0.578439 15.7175 9.82251
1 29.7503 14.9128 9.78861
1 1.3496 15.7134 10.5973
1 2.1433 14.9197 10.5973
1 2.14541 15.7095 9.79025
1 1.33407 14.9196 9.77464
1 2.93701 15.7134 10.5973
1 3.73071 14.9197 10.5973
1 3.71855 15.7191 9.81188
1 2.94891 14.9095 9.81365
1 4.52441 15.7134 10.5973
1 5.31811 14.9197 10.5973
1 5.31612 15.7133 9.81655
1 4.52945 14.9214 9.78593
1 6.11181 15.7134 10.5973
1 6.90551 14.9197 10.5973
1 6.92118 15.7041 9.81555
1 6.13292 14.9283 9.80331
1 7.69921 15.7134 10.5973
1 8.49291 14.9197 10.5973
1 8.49054 15.7145 9.79746
1 7.70848 14.9164 9.80939
1 9.28661 15.7134 10.5973
1 10.0803 14.9197 10.5973
1 10.0726 15.7345 9.78078
1 9.30372 14.891 9.7953
1 10.874 15.7134 10.5973
1 11.6677 14.9197 10.5973
1 11.6605 15.7219 9.7992
1 10.8844 14.9243 9.82446
1 12.4614 15.7134 10.5973
1 13.2551 14.9197 10.5973
1 13.2415 15.7161 9.8316
1 12.4584 14.9058 9.8254
1 14.0488 15.7134 10.5973
1 14.8425 14.9197 10.5973
1 14.8579 15.7081 9.76499
1 14.025 14.9178 9.81826
1 15.6362 15.7134 10.5973
1 16.4299 14.9197 10.5973
1 16.4242 15.7028 9.81778
1 15.6644 14.9358 9.78921
1 17.2236 15.7134 10.5973
1 18.0173 14.9197 10.5973
1 18.0204 15.6866 9.8333
1 17.1943 14.8803 9.80262
1 18.811 15.7134 10.5973
1 19.6047 14.9197 10.5973
1 19.6027 15.7145 9.81449
1 18.8203 14.9199 9.80697
1 20.3984 15.7134 10.5973
1 21.1921 14.9197 10.5973
1 21.1713 15.7151 9.79804
1 20.3694 14.9347 9.79452
1 21.9858 15.7134 10.5973
1 22.7795 14.9197 10.5973
1 22.7691 15.7067 9.78729
1 21.9683 14.9422 9.79434
1 23.5732 15.7134 10.5973
1 24.3669 14.9197 10.5973
1 24.2854 15.7148 9.75607
1 23.5266 14.9109 9.78793
1 25 14.126 10.5973
1 25.7937 13.3323 10.5973
1 25.823 14.1186 9.79127
1 25.0524 13.3139 9.75851
1 26.5874 14.126 10.5973
1 27.3811 13.3323 10.5973
1 27.3848 14.124 9.78746
1 26.602 13.3507 9.80747
1 28.1748 14.126 10.5973
1 28.9685 13.3323 10.5973
1 28.9831 14.1497 9.80108
1 28.2109 13.3465 9.82067
1 29.7622 14.126 10.5973
1 0.555904 13.3323 10.5973
1 0.571344 14.1188 9.80788
1 29.7788 13.3364 9.79178
1 1.3496 14.126 10.5973
1 2.1433 13.3323 10.5973
1 2.1526 14.128 9.80316
1 1.34746 13.3231 9.83746
1 2.93701 14.126 10.5973
1 3.73071 13.3323 10.5973
1 3.72604 14.1188 9.81057
1 2.95667 13.3367 9.80951
1 4.52441 14.126 10.5973
1 5.31811 13.3323 10.5973
1 5.31191 14.1148 9.8088
1 4.5355 13.3283 9.79381
1 6.11181 14.126 10.5973
1 6.90551 13.3323 10.5973
1 6.92187 14.1386 9.81019
1 6.10973 13.3077 9.79026
1 7.69921 14.126 10.5973
1 8.49291 13.3323 10.5973
1 8.50593 14.1289 9.81005
1 7.69402 13.3224 9.81619
1 9.28661 14.126 10.5973
1 10.0803 13.3323 10.5973
1 10.0932 14.1221 9.79608
1 9.30536 13.3464 9.79039
1 10.874 14.126 10.5973
1 11.6677 13.3323 10.5973
1 11.6647 14.1215 9.82134
1 10.8765 13.3451 9.81185
1 12.4614 14.126 10.5973
1 13.2551 13.3323 10.5973
1 13.2684 14.108 9.83015
1 12.469 13.3173 9.78043
1 14.0488 14.126 10.5973
1 14.8425 13.3323 10.5973
1 14.8576 14.1158 9.79957
1 14.0595 13.3412 9.77928
1 15.6362 14.126 10.5973
1 16.4299 13.3323 10.5973
1 16.419 14.1195 9.82194
1 15.6587 13.341 9.78343
1 17.2236 14.126 10.5973
1 18.0173 13.3323 10.5973
1 18.018 14.1262 9.82012
1 17.232 13.3315 9.81495
1 18.811 14.126 10.5973
1 19.6047 13.3323 10.5973
1 19.5788 14.1303 9.81473
1 18.8109 13.3231 9.82029
1 20.3984 14.126 10.5973
1 21.1921 13.3323 10.5973
1 21.1616 14.1405 9.81403
1 20.391 13.3526 9.79399
1 21.9858 14.126 10.5973
1 22.7795 13.3323 10.5973
1 22.7583 14.1067 9.80696
1 21.9755 13.335 9.8216
1 23.5732 14.126 10.5973
1 24.3669 13.3323 10.5973
1 24.3059 14.1428 9.76524
1 23.5322 13.3194 9.79269
1 25 12.5386 10.5973
1 25.7937 11.7449 10.5973
1 25.8134 12.5282 9.79178
1 25.0614 11.7644 9.75288
1 26.5874 12.5386 10.5973
1 27.3811 11.7449 10.5973
1 27.3858 12.5484 9.79077
1 26.5969 11.7395 9.78527
1 28.1748 12.5386 10.5973
1 28.9685 11.7449 10.5973
1 28.9734 12.5282 9.79186
1 28.2047 11.7241 9.79199
1 29.7622 12.5386 10.5973
1 0.555904 11.7449 10.5973
1 0.53953 12.5353 9.79547
1 29.7576 11.7454 9.82242
1 1.3496 12.5386 10.5973
1 2.1433 11.7449 10.5973
1 2.15832 12.5463 9.81161
1 1.36852 11.7484 9.79888
1 2.93701 12.5386 10.5973
1 3.73071 11.7449 10.5973
1 3.73929 12.5451 9.803
1 2.93148 11.7501 9.79885
1 4.52441 12.5386 10.5973
1 5.31811 11.7449 10.5973
1 5.32395 12.538 9.81527
1 4.53962 11.7445 9.80607
1 6.11181 12.5386 10.5973
1 6.90551 11.7449 10.5973
1 6.90603 12.5473 9.78815
1 6.10261 11.7307 9.80789
1 7.69921 12.5386 10.5973
1 8.49291 11.7449 10.5973
1 8.51138 12.5658 9.78454
1 7.71762 11.7541 9.80044
1 9.28661 12.5386 10.5973
1 10.0803 11.7449 10.5973
1 10.0709 12.5617 9.79001
1 9.30399 11.7319 9.80973
1 10.874 12.5386 10.5973
1 11.6677 11.7449 10.5973
1 11.6545 12.5416 9.79866
1 10.8584 11.7347 9.79454
1 12.4614 12.5386 10.5973
1 13.2551 11.7449 10.5973
1 13.2516 12.5374 9.80037
1 12.4415 11.7298 9.78553
1 14.0488 12.5386 10.5973
1 14.8425 11.7449 10.5973
1 14.8361 12.5547 9.78372
1 14.0303 11.7728 9.7891
1 15.6362 12.5386 10.5973
1 16.4299 11.7449 10.5973
1 16.4565 12.556 9.80489
1 15.6305 11.7431 9.78112
1 17.2236 12.5386 10.5973
1 18.0173 11.7449 10.5973
1 18.0196 12.5376 9.78998
1 17.2291 11.7083 9.80573
1 18.811 12.5386 10.5973
1 19.6047 11.7449 10.5973
1 19.6143 12.5461 9.80991
1 18.8062 11.7419 9.80271
1 20.3984 12.5386 10.5973
1 21.1921 11.7449 10.5973
1 21.1677 12.5596 9.80437
1 20.3691 11.7383 9.8014
1 21.9858 12.5386 10.5973
1 22.7795 11.7449 10.5973
1 22.773 12.5038 9.7967
1 21.9756 11.7469 9.81484
1 23.5732 12.5386 10.5973
1 24.3669 11.7449 10.5973
1 24.285 12.5514 9.76975
1 23.5506 11.7183 9.78873
1 25 10.9512 10.5973
1 25.7937 10.1575 10.5973
1 25.8344 10.9501 9.80078
1 25.1057 10.1551 9.75698
1 26.5874 10.9512 10.5973
1 27.3811 10.1575 10.5973
1 27.3958 10.9391 9.81839
1 26.5834 10.145 9.77562
1 28.1748 10.9512 10.5973
1 28.9685 10.1575 10.5973
1 28.9191 10.9146 9.82429
1 28.1607 10.1279 9.82592
1 29.7622 10.9512 10.5973
1 0.555904 10.1575 10.5973
1 0.562866 10.9691 9.84586
1 29.7624 10.1685 9.80737
1 1.3496 10.9512 10.5973
1 2.1433 10.1575 10.5973
1 2.14499 10.9522 9.82716
1 1.33693 10.1239 9.82978
1 2.93701 10.9512 10.5973
1 3.73071 10.1575 10.5973
1 3.72596 10.9574 9.78783
1 2.96652 10.1692 9.80933
1 4.52441 10.9512 10.5973
1 5.31811 10.1575 10.5973
1 5.30502 10.915 9.8121
1 4.52446 10.132 9.81901
1 6.11181 10.9512 10.5973
1 6.90551 10.1575 10.5973
1 6.91285 10.9551 9.80286
1 6.1031 10.1427 9.79986
1 7.69921 10.9512 10.5973
1 8.49291 10.1575 10.5973
1 8.50832 10.9423 9.80007
1 7.67895 10.1538 9.79713
1 9.28661 10.9512 10.5973
1 10.0803 10.1575 10.5973
1 10.0749 10.9401 9.79923
1 9.29885 10.1557 9.80417
1 10.874 10.9512 10.5973
1 11.6677 10.1575 10.5973
1 11.6808 10.924 9.81807
1 10.8792 10.1584 9.80564
1 12.4614 10.9512 10.5973
1 13.2551 10.1575 10.5973
1 13.255 10.9666 9.77809
1 12.4786 10.1856 9.79
1 14.0488 10.9512 10.5973
1 14.8425 10.1575 10.5973
1 14.829 10.9371 9.80582
1 14.021 10.157 9.80955
1 15.6362 10.9512 10.5973
1 16.4299 10.1575 10.5973
1 16.4166 10.9439 9.78683
1 15.6053 10.1579 9.81647
1 17.2236 10.9512 10.5973
1 18.0173 10.1575 10.5973
1 18.025 10.9667 9.81631
1 17.2389 10.147 9.80983
1 18.811 10.9512 10.5973
1 19.6047 10.1575 10.5973
1 19.6193 10.9516 9.81068
1 18.7997 10.1523 9.82606
1 20.3984 10.9512 10.5973
1 21.1921 10.1575 10.5973
1 21.1921 10.9275 9.82079
1 20.4002 10.1514 9.82246
1 21.9858 10.9512 10.5973
1 22.7795 10.1575 10.5973
1 22.7674 10.9387 9.79782
1 21.9768 10.1559 9.8084
1 23.5732 10.9512 10.5973
1 24.3669 10.1575 10.5973
1 24.3066 10.9351 9.77968
1 23.5704 10.1418 9.78441
1 25 9.36379 10.5973
1 25.7937 8.57009 10.5973
1 25.8366 9.35421 9.81984
1 25.0763 8.55668 9.76788
1 26.5874 9.36379 10.5973
1 27.3811 8.57009 10.5973
1 27.3686 9.36738 9.81675
1 26.6043 8.55186 9.78437
1 28.1748 9.36379 10.5973
1 28.9685 8.57009 10.5973
1 28.9717 9.36597 9.79121
1 28.1813 8.58235 9.79025
1 29.7622 9.36379 10.5973
1 0.555904 8.57009 10.5973
1 0.545302 9.35841 9.80408
1 29.7543 8.57056 9.79929
1 1.3496 9.36379 10.5973
1 2.1433 8.57009 10.5973
1 2.15723 9.38234 9.79603
1 1.34121 8.54253 9.79913
1 2.93701 9.36379 10.5973
1 3.73071 8.57009 10.5973
1 3.73792 9.37867 9.80411
1 2.9664 8.58665 9.78757
1 4.52441 9.36379 10.5973
1 5.31811 8.57009 10.5973
1 5.32578 9.3659 9.82564
1 4.52223 8.55719 9.81133
1 6.11181 9.36379 10.5973
1 6.90551 8.57009 10.5973
1 6.91157 9.35643 9.80099
1 6.11191 8.59395 9.79756
1 7.69921 9.36379 10.5973
1 8.49291 8.57009 10.5973
1 8.50143 9.3558 9.82614
1 7.71863 8.57042 9.81803
1 9.28661 9.36379 10.5973
1 10.0803 8.57009 10.5973
1 10.0955 9.37793 9.80918
1 9.28715 8.55347 9.81867
1 10.874 9.36379 10.5973
1 11.6677 8.57009 10.5973
1 11.6959 9.3908 9.80248
1 10.8817 8.56119 9.80564
1 12.4614 9.36379 10.5973
1 13.2551 8.57009 10.5973
1 13.2611 9.39067 9.80124
1 12.4707 8.58718 9.83887
1 14.0488 9.36379 10.5973
1 14.8425 8.57009 10.5973
1 14.8275 9.37706 9.81815
1 14.0415 8.56843 9.81025
1 15.6362 9.36379 10.5973
1 16.4299 8.57009 10.5973
1 16.4212 9.38535 9.83183
1 15.6387 8.5597 9.82767
1 17.2236 9.36379 10.5973
1 18.0173 8.57009 10.5973
1 18.0291 9.33509 9.81686
1 17.2029 8.55689 9.78666
1 18.811 9.36379 10.5973
1 19.6047 8.57009 10.5973
1 19.5943 9.3695 9.84204
1 18.8059 8.55771 9.82599
1 20.3984 9.36379 10.5973
1 21.1921 8.57009 10.5973
1 21.2073 9.34065 9.80689
1 20.4003 8.57033 9.81223
1 21.9858 9.36379 10.5973
1 22.7795 8.57009 10.5973
1 22.7657 9.34335 9.79453
1 21.9623 8.56078 9.76532
1 23.5732 9.36379 10.5973
1 24.3669 8.57009 10.5973
1 24.3051 9.34064 9.75687
1 23.5188 8.56336 9.7904
1 25 7.77639 10.5973
1 25.7937 6.98268 10.5973
1 25.8246 7.7916 9.79261
1 25.0733 7.01179 9.76106
1 26.5874 7.77639 10.5973
1 27.3811 6.98268 10.5973
1 27.3961 7.77835 9.80203
1 26.5844 6.99692 9.77736
1 28.1748 7.77639 10.5973
1 28.9685 6.98268 10.5973
1 28.9736 7.8 9.78728
1 28.1877 6.9596 9.79884
1 29.7622 7.77639 10.5973
1 0.555904 6.98268 10.5973
1 0.54034 7.77557 9.78231
1 29.7786 7.03197 9.78957
1 1.3496 7.77639 10.5973
1 2.1433 6.98268 10.5973
1 2.1605 7.77352 9.78711
1 1.34781 7.00628 9.79437
1 2.93701 7.77639 10.5973
1 3.73071 6.98268 10.5973
1 3.73828 7.76463 9.79248
1 2.95717 6.97972 9.79841
1 4.52441 7.77639 10.5973
1 5.31811 6.98268 10.5973
1 5.33567 7.77598 9.79968
1 4.52063 6.97658 9.80186
1 6.11181 7.77639 10.5973
1 6.90551 6.98268 10.5973
1 6.89878 7.74041 9.80291
1 6.09151 6.95538 9.83847
1 7.69921 7.77639 10.5973
1 8.49291 6.98268 10.5973
1 8.4996 7.77405 9.81397
1 7.71867 6.98893 9.80667
1 9.28661 7.77639 10.5973
1 10.0803 6.98268 10.5973
1 10.0588 7.77118 9.83563
1 9.28405 6.9525 9.79069
1 10.874 7.77639 10.5973
1 11.6677 6.98268 10.5973
1 11.6594 7.77768 9.81532
1 10.8689 6.98842 9.79898
1 12.4614 7.77639 10.5973
1 13.2551 6.98268 10.5973
1 13.238 7.79825 9.81242
1 12.454 6.98556 9.79367
1 14.0488 7.77639 10.5973
1 14.8425 6.98268 10.5973
1 14.8334 7.76741 9.82321
1 14.0408 6.96653 9.80493
1 15.6362 7.77639 10.5973
1 16.4299 6.98268 10.5973
1 16.4336 7.77417 9.81543
1 15.658 7.01603 9.83208
1 17.2236 7.77639 10.5973
1 18.0173 6.98268 10.5973
1 17.9953 7.77427 9.80254
1 17.2012 6.98404 9.79965
1 18.811 7.77639 10.5973
1 19.6047 6.98268 10.5973
1 19.5947 7.78429 9.80995
1 18.7849 6.99968 9.82512
1 20.3984 7.77639 10.5973
1 21.1921 6.98268 10.5973
1 21.2096 7.78924 9.7952
1 20.4095 6.99414 9.79886
1 21.9858 7.77639 10.5973
1 22.7795 6.98268 10.5973
1 22.7234 7.78004 9.7895
1 21.9621 6.96148 9.79009
1 23.5732 7.77639 10.5973
1 24.3669 6.98268 10.5973
1 24.2729 7.75358 9.76958
1 23.5297 6.99655 9.78202
1 25 6.18898 10.5973
1 25.7937 5.39528 10.5973
1 25.8109 6.2024 9.79779
1 25.0594 5.40453 9.78201
1 26.5874 6.18898 10.5973
1 27.3811 5.39528 10.5973
1 27.3901 6.18495 9.77922
1 26.6024 5.40859 9.80991
1 28.1748 6.18898 10.5973
1 28.9685 5.39528 10.5973
1 28.9977 6.20155 9.80084
1 28.1782 5.39804 9.81172
1 29.7622 6.18898 10.5973
1 0.555904 5.39528 10.5973
1 0.546378 6.18553 9.8081
1 29.7513 5.39805 9.81864
1 1.3496 6.18898 10.5973
1 2.1433 5.39528 10.5973
1 2.13934 6.20515 9.78855
1 1.33374 5.42894 9.78581
1 2.93701 6.18898 10.5973
1 3.73071 5.39528 10.5973