12976
Atoms. Timestep: 4000000
1 30 7.10543e-15 15.9843
1 0.793701 29.2063 15.9843
1 0.824138 29.956 15.1585
1 0.0673068 29.1827 15.1598
1 1.5874 7.10543e-15 15.9843
1 2.3811 29.2063 15.9843
1 2.40399 29.9436 15.1504
1 1.6021 29.2096 15.1733
1 3.1748 7.10543e-15 15.9843
1 3.9685 29.2063 15.9843
1 3.98598 29.9183 15.1658
1 3.18404 29.1661 15.1749
1 4.7622 7.10543e-15 15.9843
1 5.5559 29.2063 15.9843
1 5.57064 29.9192 15.1859
1 4.76465 29.1982 15.1944
1 6.3496 7.10543e-15 15.9843
1 7.1433 29.2063 15.9843
1 7.15427 29.9363 15.1717
1 6.36585 29.1641 15.1899
1 7.93701 7.10543e-15 15.9843
1 8.73071 29.2063 15.9843
1 8.76182 29.9182 15.1611
1 7.95493 29.1532 15.228
1 9.52441 7.10543e-15 15.9843
1 10.3181 29.2063 15.9843
1 10.3007 29.9228 15.1738
1 9.5105 29.1559 15.1899
1 11.1118 7.10543e-15 15.9843
1 11.9055 29.2063 15.9843
1 11.9118 29.9166 15.1549
1 11.1148 29.1902 15.1739
1 12.6992 7.10543e-15 15.9843
1 13.4929 29.2063 15.9843
1 13.4838 29.9567 15.1616
1 12.717 29.1897 15.1658
1 14.2866 7.10543e-15 15.9843
1 15.0803 29.2063 15.9843
1 15.0778 29.9193 15.1882
1 14.2554 29.2033 15.2131
1 15.874 7.10543e-15 15.9843
1 16.6677 29.2063 15.9843
1 16.6938 29.9148 15.1813
1 15.8717 29.1675 15.1988
1 17.4614 7.10543e-15 15.9843
1 18.2551 29.2063 15.9843
1 18.2467 29.9119 15.1574
1 17.4653 29.1502 15.1937
1 19.0488 7.10543e-15 15.9843
1 19.8425 29.2063 15.9843
1 19.8533 29.9315 15.1655
1 19.0627 29.1536 15.2064
1 20.6362 7.10543e-15 15.9843
1 21.4299 29.2063 15.9843
1 21.4453 29.9417 15.1324
1 20.6205 29.1696 15.1854
1 22.2236 7.10543e-15 15.9843
1 23.0173 29.2063 15.9843
1 23.0277 29.9384 15.1649
1 22.235 29.1681 15.1863
1 23.811 7.10543e-15 15.9843
1 24.6047 29.2063 15.9843
1 24.5914 29.9236 15.181
1 23.8177 29.1637 15.1617
1 25.3984 7.10543e-15 15.9843
1 26.1921 29.2063 15.9843
1 26.1558 29.9241 15.1349
1 25.3604 29.1691 15.1565
1 26.9858 7.10543e-15 15.9843
1 27.7795 29.2063 15.9843
1 27.7211 29.9509 15.1584
1 26.9461 29.1894 15.1937
1 28.5732 7.10543e-15 15.9843
1 29.3669 29.2063 15.9843
1 29.3116 29.9052 15.1133
1 28.5158 29.1723 15.1915
1 30 28.4126 15.9843
1 0.793701 27.6189 15.9843
1 0.809084 28.4113 15.1659
1 0.0661814 27.6098 15.1642
1 1.5874 28.4126 15.9843
1 2.3811 27.6189 15.9843
1 2.39089 28.3999 15.185
1 1.57518 27.6071 15.1834
1 3.1748 28.4126 15.9843
1 3.9685 27.6189 15.9843
1 3.97437 28.3955 15.1903
1 3.17645 27.6185 15.2061
1 4.7622 28.4126 15.9843
1 5.5559 27.6189 15.9843
1 5.55559 28.3831 15.2081
1 4.78071 27.6043 15.1998
1 6.3496 28.4126 15.9843
1 7.1433 27.6189 15.9843
1 7.1402 28.3801 15.1908
1 6.35499 27.5932 15.1926
1 7.93701 28.4126 15.9843
1 8.73071 27.6189 15.9843
1 8.72973 28.3698 15.1798
1 7.9202 27.5981 15.1947
1 9.52441 28.4126 15.9843
1 10.3181 27.6189 15.9843
1 10.3197 28.4009 15.1916
1 9.53534 27.598 15.2117
1 11.1118 28.4126 15.9843
1 11.9055 27.6189 15.9843
1 11.9274 28.4072 15.2104
1 11.1197 27.6059 15.1822
1 12.6992 28.4126 15.9843
1 13.4929 27.6189 15.9843
1 13.4807 28.3989 15.1763
1 12.7115 27.5926 15.2142
1 14.2866 28.4126 15.9843
1 15.0803 27.6189 15.9843
1 15.0838 28.4234 15.2074
1 14.2934 27.5973 15.2027
1 15.874 28.4126 15.9843
1 16.6677 27.6189 15.9843
1 16.6469 28.3971 15.2006
1 15.882 27.5964 15.1999
1 17.4614 28.4126 15.9843
1 18.2551 27.6189 15.9843
1 18.2442 28.3858 15.1992
1 17.4591 27.6139 15.2182
1 19.0488 28.4126 15.9843
1 19.8425 27.6189 15.9843
1 19.8427 28.3774 15.2163
1 19.0404 27.5832 15.1697
1 20.6362 28.4126 15.9843
1 21.4299 27.6189 15.9843
1 21.418 28.4189 15.1775
1 20.6104 27.6011 15.1769
1 22.2236 28.4126 15.9843
1 23.0173 27.6189 15.9843
1 23.0472 28.3756 15.1981
1 22.1721 27.5918 15.1916
1 23.811 28.4126 15.9843
1 24.6047 27.6189 15.9843
1 24.6227 28.3948 15.1799
1 23.8169 27.5961 15.1764
1 25.3984 28.4126 15.9843
1 26.1921 27.6189 15.9843
1 26.1803 28.4015 15.149
1 25.4046 27.5971 15.1872
1 26.9858 28.4126 15.9843
1 27.7795 27.6189 15.9843
1 27.7734 28.3849 15.1988
1 26.9745 27.6161 15.1747
1 28.5732 28.4126 15.9843
1 29.3669 27.6189 15.9843
1 29.3187 28.4088 15.1532
1 28.5671 27.6212 15.162
1 30 26.8252 15.9843
1 0.793701 26.0315 15.9843
1 0.834215 26.8245 15.2016
1 0.0675846 26.0243 15.1504
1 1.5874 26.8252 15.9843
1 2.3811 26.0315 15.9843
1 2.36599 26.8379 15.198
1 1.6011 26.027 15.1772
1 3.1748 26.8252 15.9843
1 3.9685 26.0315 15.9843
1 3.95096 26.8361 15.1878
1 3.17545 26.0645 15.1875
1 4.7622 26.8252 15.9843
1 5.5559 26.0315 15.9843
1 5.56588 26.8093 15.1995
1 4.7528 26.0245 15.1853
1 6.3496 26.8252 15.9843
1 7.1433 26.0315 15.9843
1 7.13731 26.813 15.1951
1 6.34433 26.0428 15.1894
1 7.93701 26.8252 15.9843
1 8.73071 26.0315 15.9843
1 8.75145 26.8352 15.1999
1 7.94848 26.0493 15.1839
1 9.52441 26.8252 15.9843
1 10.3181 26.0315 15.9843
1 10.3338 26.82 15.1816
1 9.5377 26.0348 15.2042
1 11.1118 26.8252 15.9843
1 11.9055 26.0315 15.9843
1 11.9182 26.8271 15.1894
1 11.1132 26.0262 15.2117
1 12.6992 26.8252 15.9843
1 13.4929 26.0315 15.9843
1 13.4935 26.8178 15.1964
1 12.6829 26.0202 15.1893
1 14.2866 26.8252 15.9843
1 15.0803 26.0315 15.9843
1 15.0896 26.8084 15.1782
1 14.2835 26.0158 15.1877
1 15.874 26.8252 15.9843
1 16.6677 26.0315 15.9843
1 16.6801 26.8242 15.168
1 15.8845 26.024 15.2151
1 17.4614 26.8252 15.9843
1 18.2551 26.0315 15.9843
1 18.2685 26.8104 15.2233
1 17.4607 26.0189 15.2064
1 19.0488 26.8252 15.9843
1 19.8425 26.0315 15.9843
1 19.8357 26.8027 15.1938
1 19.0723 26.0085 15.1864
1 20.6362 26.8252 15.9843
1 21.4299 26.0315 15.9843
1 21.412 26.8215 15.1703
1 20.6282 26.0087 15.1823
1 22.2236 26.8252 15.9843
1 23.0173 26.0315 15.9843
1 22.9979 26.8187 15.1631
1 22.2292 26.0286 15.1782
1 23.811 26.8252 15.9843
1 24.6047 26.0315 15.9843
1 24.5976 26.8129 15.1912
1 23.8182 26.0252 15.1855
1 25.3984 26.8252 15.9843
1 26.1921 26.0315 15.9843
1 26.1804 26.8111 15.1853
1 25.3899 26.0202 15.1574
1 26.9858 26.8252 15.9843
1 27.7795 26.0315 15.9843
1 27.7772 26.8095 15.1761
1 26.9684 26.0183 15.2014
1 28.5732 26.8252 15.9843
1 29.3669 26.0315 15.9843
1 29.3048 26.7918 15.1656
1 28.5451 26.021 15.1722
1 30 25.2378 15.9843
1 0.793701 24.4441 15.9843
1 0.810535 25.2287 15.1764
1 0.0732043 24.4241 15.1535
1 1.5874 25.2378 15.9843
1 2.3811 24.4441 15.9843
1 2.38398 25.2427 15.1935
1 1.63148 24.4286 15.2097
1 3.1748 25.2378 15.9843
1 3.9685 24.4441 15.9843
1 3.9532 25.2424 15.2154
1 3.19168 24.4635 15.178
1 4.7622 25.2378 15.9843
1 5.5559 24.4441 15.9843
1 5.56692 25.2752 15.1942
1 4.76438 24.4414 15.21
1 6.3496 25.2378 15.9843
1 7.1433 24.4441 15.9843
1 7.16608 25.2585 15.1961
1 6.34056 24.4716 15.1855
1 7.93701 25.2378 15.9843
1 8.73071 24.4441 15.9843
1 8.73807 25.229 15.1843
1 7.9258 24.4477 15.2041
1 9.52441 25.2378 15.9843
1 10.3181 24.4441 15.9843
1 10.3046 25.2414 15.1933
1 9.52752 24.4412 15.1983
1 11.1118 25.2378 15.9843
1 11.9055 24.4441 15.9843
1 11.9014 25.2154 15.1843
1 11.0953 24.4331 15.1922
1 12.6992 25.2378 15.9843
1 13.4929 24.4441 15.9843
1 13.4917 25.2393 15.1745
1 12.7024 24.4426 15.1744
1 14.2866 25.2378 15.9843
1 15.0803 24.4441 15.9843
1 15.103 25.2312 15.184
1 14.2648 24.445 15.1958
1 15.874 25.2378 15.9843
1 16.6677 24.4441 15.9843
1 16.6764 25.2123 15.2048
1 15.889 24.4184 15.1939
1 17.4614 25.2378 15.9843
1 18.2551 24.4441 15.9843
1 18.2403 25.234 15.1966
1 17.4797 24.4362 15.1977
1 19.0488 25.2378 15.9843
1 19.8425 24.4441 15.9843
1 19.8339 25.2044 15.1789
1 19.0504 24.4235 15.1849
1 20.6362 25.2378 15.9843
1 21.4299 24.4441 15.9843
1 21.4151 25.2316 15.175
1 20.6336 24.4333 15.1755
1 22.2236 25.2378 15.9843
1 23.0173 24.4441 15.9843
1 23.0261 25.2344 15.2048
1 22.2324 24.4588 15.1701
1 23.811 25.2378 15.9843
1 24.6047 24.4441 15.9843
1 24.5924 25.2413 15.1729
1 23.8162 24.4104 15.1696
1 25.3984 25.2378 15.9843
1 26.1921 24.4441 15.9843
1 26.1887 25.2054 15.1998
1 25.3727 24.4198 15.202
1 26.9858 25.2378 15.9843
1 27.7795 24.4441 15.9843
1 27.7902 25.2484 15.1842
1 26.9667 24.4662 15.206
1 28.5732 25.2378 15.9843
1 29.3669 24.4441 15.9843
1 29.3012 25.2208 15.1495
1 28.5276 24.4405 15.1865
1 30 23.6504 15.9843
1 0.793701 22.8567 15.9843
1 0.827286 23.6562 15.2023
1 0.0542961 22.8511 15.1425
1 1.5874 23.6504 15.9843
1 2.3811 22.8567 15.9843
1 2.4116 23.6607 15.2012
1 1.61208 22.8549 15.1876
1 3.1748 23.6504 15.9843
1 3.9685 22.8567 15.9843
1 3.96521 23.6266 15.187
1 3.18895 22.8514 15.2075
1 4.7622 23.6504 15.9843
1 5.5559 22.8567 15.9843
1 5.55236 23.6506 15.1859
1 4.76941 22.856 15.2281
1 6.3496 23.6504 15.9843
1 7.1433 22.8567 15.9843
1 7.1363 23.6916 15.178
1 6.35769 22.8492 15.2156
1 7.93701 23.6504 15.9843
1 8.73071 22.8567 15.9843
1 8.73854 23.636 15.2008
1 7.93325 22.8759 15.1894
1 9.52441 23.6504 15.9843
1 10.3181 22.8567 15.9843
1 10.3257 23.6442 15.1949
1 9.54136 22.8408 15.1909
1 11.1118 23.6504 15.9843
1 11.9055 22.8567 15.9843
1 11.8987 23.6672 15.2232
1 11.1004 22.8644 15.2065
1 12.6992 23.6504 15.9843
1 13.4929 22.8567 15.9843
1 13.4914 23.6348 15.1949
1 12.6884 22.8654 15.207
1 14.2866 23.6504 15.9843
1 15.0803 22.8567 15.9843
1 15.0782 23.6501 15.195
1 14.3036 22.8544 15.1985
1 15.874 23.6504 15.9843
1 16.6677 22.8567 15.9843
1 16.6794 23.6515 15.2015
1 15.8781 22.8496 15.1819
1 17.4614 23.6504 15.9843
1 18.2551 22.8567 15.9843
1 18.2575 23.6652 15.1828
1 17.4585 22.8823 15.2118
1 19.0488 23.6504 15.9843
1 19.8425 22.8567 15.9843
1 19.8567 23.6274 15.1842
1 19.034 22.8667 15.2154
1 20.6362 23.6504 15.9843
1 21.4299 22.8567 15.9843
1 21.413 23.6523 15.1893
1 20.6632 22.8652 15.1901
1 22.2236 23.6504 15.9843
1 23.0173 22.8567 15.9843
1 22.9988 23.6409 15.1813
1 22.2008 22.8658 15.1829
1 23.811 23.6504 15.9843
1 24.6047 22.8567 15.9843
1 24.6115 23.661 15.1894
1 23.8041 22.8566 15.2189
1 25.3984 23.6504 15.9843
1 26.1921 22.8567 15.9843
1 26.1689 23.6361 15.1792
1 25.403 22.8402 15.1971
1 26.9858 23.6504 15.9843
1 27.7795 22.8567 15.9843
1 27.767 23.6737 15.2031
1 26.9931 22.8412 15.1904
1 28.5732 23.6504 15.9843
1 29.3669 22.8567 15.9843
1 29.3114 23.6454 15.161
1 28.5588 22.8473 15.1762
1 30 22.063 15.9843
1 0.793701 21.2693 15.9843
1 0.821191 22.0603 15.1893
1 0.0626295 21.2773 15.1739
1 1.5874 22.063 15.9843
1 2.3811 21.2693 15.9843
1 2.3725 22.068 15.1839
1 1.61379 21.2939 15.2005
1 3.1748 22.063 15.9843
1 3.9685 21.2693 15.9843
1 3.98298 22.0456 15.2046
1 3.17212 21.28 15.1903
1 4.7622 22.063 15.9843
1 5.5559 21.2693 15.9843
1 5.56682 22.0719 15.1887
1 4.76131 21.3047 15.1891
1 6.3496 22.063 15.9843
1 7.1433 21.2693 15.9843
1 7.1668 22.0734 15.166
1 6.36925 21.2653 15.17
1 7.93701 22.063 15.9843
1 8.73071 21.2693 15.9843
1 8.70014 22.0559 15.1711
1 7.94237 21.2533 15.1852
1 9.52441 22.063 15.9843
1 10.3181 21.2693 15.9843
1 10.3409 22.0548 15.2002
1 9.49152 21.2514 15.1878
1 11.1118 22.063 15.9843
1 11.9055 21.2693 15.9843
1 11.9008 22.0679 15.1857
1 11.1028 21.2796 15.1943
1 12.6992 22.063 15.9843
1 13.4929 21.2693 15.9843
1 13.4837 22.0331 15.2013
1 12.6984 21.2518 15.1795
1 14.2866 22.063 15.9843
1 15.0803 21.2693 15.9843
1 15.0708 22.0606 15.172
1 14.2711 21.2691 15.2062
1 15.874 22.063 15.9843
1 16.6677 21.2693 15.9843
1 16.6676 22.0297 15.17
1 15.8703 21.2763 15.187
1 17.4614 22.063 15.9843
1 18.2551 21.2693 15.9843
1 18.2524 22.0632 15.2112
1 17.4574 21.2555 15.2109
1 19.0488 22.063 15.9843
1 19.8425 21.2693 15.9843
1 19.8585 22.0648 15.2009
1 19.0402 21.2593 15.2438
1 20.6362 22.063 15.9843
1 21.4299 21.2693 15.9843
1 21.4514 22.046 15.1866
1 20.6365 21.2642 15.2103
1 22.2236 22.063 15.9843
1 23.0173 21.2693 15.9843
1 22.9873 22.0998 15.1934
1 22.1955 21.2455 15.2106
1 23.811 22.063 15.9843
1 24.6047 21.2693 15.9843
1 24.5844 22.0737 15.2212
1 23.8012 21.2794 15.1993
1 25.3984 22.063 15.9843
1 26.1921 21.2693 15.9843
1 26.2085 22.0534 15.1774
1 25.3887 21.2702 15.2086
1 26.9858 22.063 15.9843
1 27.7795 21.2693 15.9843
1 27.7671 22.0643 15.1783
1 26.9872 21.2757 15.2024
1 28.5732 22.063 15.9843
1 29.3669 21.2693 15.9843
1 29.3143 22.0582 15.1672
1 28.5641 21.2563 15.1573
1 30 20.4756 15.9843
1 0.793701 19.6819 15.9843
1 0.83846 20.4645 15.1993
1 0.0541197 19.6907 15.1538
1 1.5874 20.4756 15.9843
1 2.3811 19.6819 15.9843
1 2.40224 20.4844 15.1974
1 1.606 19.6825 15.1802
1 3.1748 20.4756 15.9843
1 3.9685 19.6819 15.9843
1 3.97738 20.4847 15.1873
1 3.16512 19.6943 15.1979
1 4.7622 20.4756 15.9843
1 5.5559 19.6819 15.9843
1 5.58534 20.478 15.1666
1 4.77034 19.6577 15.1885
1 6.3496 20.4756 15.9843
1 7.1433 19.6819 15.9843
1 7.14399 20.4466 15.1854
1 6.36269 19.6766 15.1739
1 7.93701 20.4756 15.9843
1 8.73071 19.6819 15.9843
1 8.71548 20.4869 15.1903
1 7.9863 19.6868 15.1673
1 9.52441 20.4756 15.9843
1 10.3181 19.6819 15.9843
1 10.3167 20.4929 15.1819
1 9.52181 19.6785 15.1959
1 11.1118 20.4756 15.9843
1 11.9055 19.6819 15.9843
1 11.8997 20.4809 15.2026
1 11.1434 19.6865 15.1893
1 12.6992 20.4756 15.9843
1 13.4929 19.6819 15.9843
1 13.4568 20.4641 15.1623
1 12.6773 19.6669 15.1987
1 14.2866 20.4756 15.9843
1 15.0803 19.6819 15.9843
1 15.0868 20.4833 15.2057
1 14.3059 19.68 15.1873
1 15.874 20.4756 15.9843
1 16.6677 19.6819 15.9843
1 16.6692 20.4828 15.1889
1 15.8668 19.6744 15.1711
1 17.4614 20.4756 15.9843
1 18.2551 19.6819 15.9843
1 18.2588 20.4544 15.2286
1 17.4385 19.6897 15.1841
1 19.0488 20.4756 15.9843
1 19.8425 19.6819 15.9843
1 19.8344 20.4565 15.197
1 19.0458 19.6762 15.1855
1 20.6362 20.4756 15.9843
1 21.4299 19.6819 15.9843
1 21.4299 20.4734 15.1866
1 20.636 19.6795 15.1731
1 22.2236 20.4756 15.9843
1 23.0173 19.6819 15.9843
1 22.9969 20.4632 15.2104
1 22.2351 19.6845 15.1722
1 23.811 20.4756 15.9843
1 24.6047 19.6819 15.9843
1 24.6045 20.4833 15.2001
1 23.81 19.6878 15.239
1 25.3984 20.4756 15.9843
1 26.1921 19.6819 15.9843
1 26.1876 20.4916 15.1924
1 25.3723 19.6981 15.1788
1 26.9858 20.4756 15.9843
1 27.7795 19.6819 15.9843
1 27.753 20.4846 15.1913
1 26.9756 19.6783 15.1926
1 28.5732 20.4756 15.9843
1 29.3669 19.6819 15.9843
1 29.3332 20.4809 15.1413
1 28.5426 19.6943 15.1867
1 30 18.8882 15.9843
1 0.793701 18.0945 15.9843
1 0.818257 18.8575 15.1679
1 0.0741861 18.0666 15.1577
1 1.5874 18.8882 15.9843
1 2.3811 18.0945 15.9843
1 2.40379 18.8794 15.1952
1 1.59603 18.1048 15.1824
1 3.1748 18.8882 15.9843
1 3.9685 18.0945 15.9843
1 3.96169 18.8814 15.2006
1 3.17664 18.1126 15.1897
1 4.7622 18.8882 15.9843
1 5.5559 18.0945 15.9843
1 5.5638 18.8734 15.1766
1 4.76623 18.1163 15.1837
1 6.3496 18.8882 15.9843
1 7.1433 18.0945 15.9843
1 7.13803 18.8597 15.1868
1 6.33433 18.0871 15.1811
1 7.93701 18.8882 15.9843
1 8.73071 18.0945 15.9843
1 8.75635 18.9005 15.1671
1 7.95938 18.1082 15.2052
1 9.52441 18.8882 15.9843
1 10.3181 18.0945 15.9843
1 10.3147 18.8824 15.1973
1 9.50643 18.0954 15.1895
1 11.1118 18.8882 15.9843
1 11.9055 18.0945 15.9843
1 11.8959 18.8865 15.1938
1 11.115 18.0904 15.1791
1 12.6992 18.8882 15.9843
1 13.4929 18.0945 15.9843
1 13.4742 18.8951 15.1882
1 12.7214 18.079 15.2005
1 14.2866 18.8882 15.9843
1 15.0803 18.0945 15.9843
1 15.0767 18.9024 15.1854
1 14.2879 18.0933 15.1859
1 15.874 18.8882 15.9843
1 16.6677 18.0945 15.9843
1 16.6723 18.8907 15.2048
1 15.8883 18.0955 15.1806
1 17.4614 18.8882 15.9843
1 18.2551 18.0945 15.9843
1 18.2336 18.9068 15.1919
1 17.446 18.1131 15.1723
1 19.0488 18.8882 15.9843
1 19.8425 18.0945 15.9843
1 19.853 18.8943 15.2054
1 19.0302 18.0981 15.1919
1 20.6362 18.8882 15.9843
1 21.4299 18.0945 15.9843
1 21.4557 18.8872 15.1887
1 20.6444 18.0734 15.2004
1 22.2236 18.8882 15.9843
1 23.0173 18.0945 15.9843
1 22.9983 18.8905 15.2051
1 22.2191 18.0926 15.1787
1 23.811 18.8882 15.9843
1 24.6047 18.0945 15.9843
1 24.6223 18.8759 15.2177
1 23.815 18.0761 15.2035
1 25.3984 18.8882 15.9843
1 26.1921 18.0945 15.9843
1 26.2158 18.8912 15.1948
1 25.3934 18.0913 15.2081
1 26.9858 18.8882 15.9843
1 27.7795 18.0945 15.9843
1 27.7875 18.9012 15.1671
1 26.9866 18.1051 15.1795
1 28.5732 18.8882 15.9843
1 29.3669 18.0945 15.9843
1 29.2929 18.876 15.1807
1 28.537 18.0959 15.1911
1 30 17.3008 15.9843
1 0.793701 16.5071 15.9843
1 0.82683 17.2735 15.1948
1 0.0327232 16.4976 15.1615
1 1.5874 17.3008 15.9843
1 2.3811 16.5071 15.9843
1 2.38816 17.3298 15.2069
1 1.61385 16.4936 15.1808
1 3.1748 17.3008 15.9843
1 3.9685 16.5071 15.9843
1 3.96957 17.3214 15.1935
1 3.18609 16.4803 15.1569
1 4.7622 17.3008 15.9843
1 5.5559 16.5071 15.9843
1 5.526 17.3225 15.2044
1 4.77207 16.5071 15.1696
1 6.3496 17.3008 15.9843
1 7.1433 16.5071 15.9843
1 7.13364 17.3197 15.205
1 6.33398 16.5209 15.198
1 7.93701 17.3008 15.9843
1 8.73071 16.5071 15.9843
1 8.72718 17.3012 15.2115
1 7.92377 16.479 15.2
1 9.52441 17.3008 15.9843
1 10.3181 16.5071 15.9843
1 10.3008 17.3141 15.1762
1 9.53204 16.5015 15.206
1 11.1118 17.3008 15.9843
1 11.9055 16.5071 15.9843
1 11.906 17.3157 15.1807
1 11.1237 16.5448 15.186
1 12.6992 17.3008 15.9843
1 13.4929 16.5071 15.9843
1 13.5199 17.2888 15.188
1 12.7057 16.5219 15.1678
1 14.2866 17.3008 15.9843
1 15.0803 16.5071 15.9843
1 15.0404 17.3041 15.1558
1 14.2889 16.4909 15.2004
1 15.874 17.3008 15.9843
1 16.6677 16.5071 15.9843
1 16.6631 17.323 15.2042
1 15.838 16.5129 15.2079
1 17.4614 17.3008 15.9843
1 18.2551 16.5071 15.9843
1 18.2393 17.293 15.2139
1 17.4607 16.4918 15.2075
1 19.0488 17.3008 15.9843
1 19.8425 16.5071 15.9843
1 19.8229 17.3103 15.1861
1 19.0516 16.4793 15.1904
1 20.6362 17.3008 15.9843
1 21.4299 16.5071 15.9843
1 21.423 17.2938 15.1882
1 20.6265 16.5112 15.2145
1 22.2236 17.3008 15.9843
1 23.0173 16.5071 15.9843
1 23.02 17.2996 15.183
1 22.2357 16.5025 15.2226
1 23.811 17.3008 15.9843
1 24.6047 16.5071 15.9843
1 24.5979 17.3065 15.1878
1 23.8014 16.4822 15.1969
1 25.3984 17.3008 15.9843
1 26.1921 16.5071 15.9843
1 26.1979 17.3107 15.197
1 25.3933 16.5164 15.1731
1 26.9858 17.3008 15.9843
1 27.7795 16.5071 15.9843
1 27.7643 17.2624 15.1908
1 26.9586 16.5035 15.1941
1 28.5732 17.3008 15.9843
1 29.3669 16.5071 15.9843
1 29.284 17.2651 15.1602
1 28.5084 16.5094 15.1607
1 30 15.7134 15.9843
1 0.793701 14.9197 15.9843
1 0.832509 15.7156 15.1747
1 0.082962 14.9177 15.1542
1 1.5874 15.7134 15.9843
1 2.3811 14.9197 15.9843
1 2.40862 15.7217 15.1818
1 1.63222 14.9108 15.1795
1 3.1748 15.7134 15.9843
1 3.9685 14.9197 15.9843
1 3.97487 15.7086 15.1825
1 3.18735 14.9329 15.1841
1 4.7622 15.7134 15.9843
1 5.5559 14.9197 15.9843
1 5.55635 15.7152 15.1942
1 4.77997 14.926 15.1835
1 6.3496 15.7134 15.9843
1 7.1433 14.9197 15.9843
1 7.15367 15.7065 15.1994
1 6.35246 14.9148 15.1955
1 7.93701 15.7134 15.9843
1 8.73071 14.9197 15.9843
1 8.73357 15.6851 15.1747
1 7.94226 14.8945 15.171
1 9.52441 15.7134 15.9843
1 10.3181 14.9197 15.9843
1 10.3336 15.7304 15.1553
1 9.54202 14.9078 15.1885
1 11.1118 15.7134 15.9843
1 11.9055 14.9197 15.9843
1 11.9063 15.7119 15.2044
1 11.102 14.9252 15.182
1 12.6992 15.7134 15.9843
1 13.4929 14.9197 15.9843
1 13.5165 15.7114 15.1866
1 12.7081 14.9117 15.2123
1 14.2866 15.7134 15.9843
1 15.0803 14.9197 15.9843
1 15.0707 15.7044 15.1827
1 14.2927 14.8968 15.2083
1 15.874 15.7134 15.9843
1 16.6677 14.9197 15.9843
1 16.6628 15.7022 15.2315
1 15.8773 14.932 15.1885
1 17.4614 15.7134 15.9843
1 18.2551 14.9197 15.9843
1 18.243 15.6998 15.1862
1 17.4765 14.9122 15.1765
1 19.0488 15.7134 15.9843
1 19.8425 14.9197 15.9843
1 19.8509 15.6854 15.1983
1 19.0186 14.9128 15.1977
1 20.6362 15.7134 15.9843
1 21.4299 14.9197 15.9843
1 21.4262 15.7153 15.1727
1 20.6438 14.9041 15.208
1 22.2236 15.7134 15.9843
1 23.0173 14.9197 15.9843
1 23.0012 15.7034 15.2102
1 22.2198 14.9341 15.1802
1 23.811 15.7134 15.9843
1 24.6047 14.9197 15.9843
1 24.6252 15.7262 15.2259
1 23.8106 14.9163 15.1757
1 25.3984 15.7134 15.9843
1 26.1921 14.9197 15.9843
1 26.1806 15.719 15.1931
1 25.4095 14.9345 15.1794
1 26.9858 15.7134 15.9843
1 27.7795 14.9197 15.9843
1 27.7601 15.7022 15.175
1 26.9516 14.9075 15.2108
1 28.5732 15.7134 15.9843
1 29.3669 14.9197 15.9843
1 29.2717 15.6995 15.1575
1 28.5613 14.9012 15.177
1 30 14.126 15.9843
1 0.793701 13.3323 15.9843
1 0.847928 14.1175 15.175
1 0.0351815 13.3115 15.1551
1 1.5874 14.126 15.9843
1 2.3811 13.3323 15.9843
1 2.39806 14.1184 15.1897
1 1.6081 13.3414 15.1724
1 3.1748 14.126 15.9843
1 3.9685 13.3323 15.9843
1 3.97562 14.1229 15.1798
1 3.1938 13.3172 15.1917
1 4.7622 14.126 15.9843
1 5.5559 13.3323 15.9843
1 5.53873 14.1084 15.1606
1 4.75158 13.3533 15.1997
1 6.3496 14.126 15.9843
1 7.1433 13.3323 15.9843
1 7.13692 14.1025 15.1856
1 6.3204 13.3389 15.1807
1 7.93701 14.126 15.9843
1 8.73071 13.3323 15.9843
1 8.74767 14.117 15.1937
1 7.91359 13.3305 15.2199
1 9.52441 14.126 15.9843
1 10.3181 13.3323 15.9843
1 10.3348 14.1402 15.1859
1 9.54442 13.3161 15.1956
1 11.1118 14.126 15.9843
1 11.9055 13.3323 15.9843
1 11.8988 14.1241 15.1976
1 11.0921 13.3157 15.2141
1 12.6992 14.126 15.9843
1 13.4929 13.3323 15.9843
1 13.5087 14.1274 15.178
1 12.7022 13.3344 15.1881
1 14.2866 14.126 15.9843
1 15.0803 13.3323 15.9843
1 15.0856 14.1451 15.1634
1 14.3052 13.323 15.1768
1 15.874 14.126 15.9843
1 16.6677 13.3323 15.9843
1 16.6628 14.1057 15.1855
1 15.8694 13.3252 15.1987
1 17.4614 14.126 15.9843
1 18.2551 13.3323 15.9843
1 18.2448 14.0998 15.1927
1 17.4427 13.3321 15.1765
1 19.0488 14.126 15.9843
1 19.8425 13.3323 15.9843
1 19.8503 14.1258 15.1989
1 19.0458 13.3454 15.1789
1 20.6362 14.126 15.9843
1 21.4299 13.3323 15.9843
1 21.4244 14.1345 15.1784
1 20.6114 13.3261 15.1864
1 22.2236 14.126 15.9843
1 23.0173 13.3323 15.9843
1 23.0114 14.1355 15.196
1 22.2302 13.3449 15.2031
1 23.811 14.126 15.9843
1 24.6047 13.3323 15.9843
1 24.5864 14.1347 15.1955
1 23.8025 13.3558 15.1923
1 25.3984 14.126 15.9843
1 26.1921 13.3323 15.9843
1 26.1747 14.124 15.1663
1 25.3711 13.352 15.1836
1 26.9858 14.126 15.9843
1 27.7795 13.3323 15.9843
1 27.7549 14.1187 15.1746
1 26.9991 13.332 15.1813
1 28.5732 14.126 15.9843
1 29.3669 13.3323 15.9843
1 29.2987 14.1036 15.1665
1 28.5471 13.3066 15.1711
1 30 12.5386 15.9843
1 0.793701 11.7449 15.9843
1 0.835035 12.5486 15.1775
1 0.0875437 11.7667 15.1586
1 1.5874 12.5386 15.9843
1 2.3811 11.7449 15.9843
1 2.3739 12.5337 15.1719
1 1.57565 11.7367 15.2014
1 3.1748 12.5386 15.9843
1 3.9685 11.7449 15.9843
1 3.95664 12.5165 15.199
1 3.15788 11.737 15.1984
1 4.7622 12.5386 15.9843
1 5.5559 11.7449 15.9843
1 5.53572 12.5415 15.1755
1 4.75532 11.7318 15.1678
1 6.3496 12.5386 15.9843
1 7.1433 11.7449 15.9843
1 7.11965 12.5532 15.177
1 6.33849 11.7589 15.1899
1 7.93701 12.5386 15.9843
1 8.73071 11.7449 15.9843
1 8.71597 12.5349 15.1817
1 7.94116 11.7698 15.1812
1 9.52441 12.5386 15.9843
1 10.3181 11.7449 15.9843
1 10.2997 12.5325 15.1943
1 9.52361 11.7414 15.1824
1 11.1118 12.5386 15.9843
1 11.9055 11.7449 15.9843
1 11.9217 12.518 15.1924
1 11.0957 11.7647 15.2059
1 12.6992 12.5386 15.9843
1 13.4929 11.7449 15.9843
1 13.5125 12.5287 15.1791
1 12.7201 11.7333 15.2039
1 14.2866 12.5386 15.9843
1 15.0803 11.7449 15.9843
1 15.062 12.5256 15.1701
1 14.2629 11.7332 15.1733
1 15.874 12.5386 15.9843
1 16.6677 11.7449 15.9843
1 16.6577 12.5597 15.193
1 15.8579 11.7107 15.1783
1 17.4614 12.5386 15.9843
1 18.2551 11.7449 15.9843
1 18.2214 12.5483 15.2008
1 17.4517 11.7265 15.1923
1 19.0488 12.5386 15.9843
1 19.8425 11.7449 15.9843
1 19.8255 12.5512 15.1719
1 19.0446 11.7676 15.209
1 20.6362 12.5386 15.9843
1 21.4299 11.7449 15.9843
1 21.4272 12.5578 15.1921
1 20.614 11.7468 15.1699
1 22.2236 12.5386 15.9843
1 23.0173 11.7449 15.9843
1 23.0292 12.5452 15.2183
1 22.2236 11.7389 15.203
1 23.811 12.5386 15.9843
1 24.6047 11.7449 15.9843
1 24.5963 12.5622 15.199
1 23.8243 11.7426 15.1849
1 25.3984 12.5386 15.9843
1 26.1921 11.7449 15.9843
1 26.2016 12.5486 15.1818
1 25.4046 11.76 15.1834
1 26.9858 12.5386 15.9843
1 27.7795 11.7449 15.9843
1 27.7496 12.5308 15.178
1 26.9708 11.7094 15.1938
1 28.5732 12.5386 15.9843
1 29.3669 11.7449 15.9843
1 29.2885 12.5114 15.1589
1 28.5402 11.7392 15.1765
1 30 10.9512 15.9843
1 0.793701 10.1575 15.9843
1 0.821202 10.9617 15.198
1 0.0626623 10.1489 15.1426
1 1.5874 10.9512 15.9843
1 2.3811 10.1575 15.9843
1 2.36907 10.9307 15.1889
1 1.59001 10.1278 15.1921
1 3.1748 10.9512 15.9843
1 3.9685 10.1575 15.9843
1 4.00334 10.9452 15.1975
1 3.17831 10.1726 15.1827
1 4.7622 10.9512 15.9843
1 5.5559 10.1575 15.9843
1 5.55202 10.9472 15.2041
1 4.74939 10.1598 15.1806
1 6.3496 10.9512 15.9843
1 7.1433 10.1575 15.9843
1 7.16452 10.9646 15.1934
1 6.38765 10.1753 15.1946
1 7.93701 10.9512 15.9843
1 8.73071 10.1575 15.9843
1 8.71331 10.9535 15.1835
1 7.95888 10.1603 15.2012
1 9.52441 10.9512 15.9843
1 10.3181 10.1575 15.9843
1 10.3217 10.9587 15.2324
1 9.52021 10.1622 15.1966
1 11.1118 10.9512 15.9843
1 11.9055 10.1575 15.9843
1 11.9022 10.9695 15.2023
1 11.1204 10.1618 15.1711
1 12.6992 10.9512 15.9843
1 13.4929 10.1575 15.9843
1 13.4798 10.9424 15.1752
1 12.6995 10.1483 15.169
1 14.2866 10.9512 15.9843
1 15.0803 10.1575 15.9843
1 15.1021 10.9294 15.1807
1 14.2775 10.1742 15.1636
1 15.874 10.9512 15.9843
1 16.6677 10.1575 15.9843
1 16.6738 10.9449 15.2141
1 15.8731 10.1563 15.1938
1 17.4614 10.9512 15.9843
1 18.2551 10.1575 15.9843
1 18.2631 10.9576 15.2088
1 17.4923 10.1424 15.219
1 19.0488 10.9512 15.9843
1 19.8425 10.1575 15.9843
1 19.8617 10.9613 15.1884
1 19.0521 10.1599 15.1977
1 20.6362 10.9512 15.9843
1 21.4299 10.1575 15.9843
1 21.4306 10.9596 15.1728
1 20.6392 10.1797 15.1972
1 22.2236 10.9512 15.9843
1 23.0173 10.1575 15.9843
1 23.0163 10.9507 15.1981
1 22.2183 10.1588 15.1515
1 23.811 10.9512 15.9843
1 24.6047 10.1575 15.9843
1 24.5932 10.9526 15.1903
1 23.796 10.168 15.2223
1 25.3984 10.9512 15.9843
1 26.1921 10.1575 15.9843
1 26.1825 10.9455 15.193
1 25.3625 10.1777 15.1996
1 26.9858 10.9512 15.9843
1 27.7795 10.1575 15.9843
1 27.7574 10.9473 15.1934
1 26.9591 10.126 15.1856
1 28.5732 10.9512 15.9843
1 29.3669 10.1575 15.9843
1 29.297 10.9609 15.1575
1 28.5312 10.1498 15.166
1 30 9.36379 15.9843
1 0.793701 8.57009 15.9843
1 0.796609 9.36348 15.1934
1 0.0605569 8.5626 15.1692
1 1.5874 9.36379 15.9843
1 2.3811 8.57009 15.9843
1 2.38384 9.37679 15.1878
1 1.58865 8.5989 15.2032
1 3.1748 9.36379 15.9843
1 3.9685 8.57009 15.9843
1 3.97672 9.36658 15.1947
1 3.17327 8.57876 15.17
1 4.7622 9.36379 15.9843
1 5.5559 8.57009 15.9843
1 5.56813 9.39881 15.1875
1 4.77029 8.59769 15.2033
1 6.3496 9.36379 15.9843
1 7.1433 8.57009 15.9843
1 7.14474 9.35309 15.1903
1 6.34621 8.58135 15.1825
1 7.93701 9.36379 15.9843
1 8.73071 8.57009 15.9843
1 8.74766 9.36868 15.1953
1 7.93065 8.56098 15.2157
1 9.52441 9.36379 15.9843
1 10.3181 8.57009 15.9843
1 10.3251 9.3541 15.2148
1 9.53213 8.56179 15.183
1 11.1118 9.36379 15.9843
1 11.9055 8.57009 15.9843
1 11.8925 9.38743 15.1972
1 11.1347 8.5787 15.184
1 12.6992 9.36379 15.9843
1 13.4929 8.57009 15.9843
1 13.4818 9.36831 15.1937
1 12.7037 8.58479 15.1712
1 14.2866 9.36379 15.9843
1 15.0803 8.57009 15.9843
1 15.0707 9.35983 15.1904
1 14.2917 8.56627 15.209
1 15.874 9.36379 15.9843
1 16.6677 8.57009 15.9843
1 16.6626 9.35819 15.2013
1 15.8715 8.56666 15.2121
1 17.4614 9.36379 15.9843
1 18.2551 8.57009 15.9843
1 18.2571 9.35991 15.2113
1 17.4614 8.57245 15.2004
1 19.0488 9.36379 15.9843
1 19.8425 8.57009 15.9843
1 19.851 9.38112 15.1815
1 19.0446 8.5953 15.1591
1 20.6362 9.36379 15.9843
1 21.4299 8.57009 15.9843
1 21.4239 9.3741 15.1755
1 20.6364 8.56813 15.1728
1 22.2236 9.36379 15.9843
1 23.0173 8.57009 15.9843
1 23.0008 9.38215 15.1787
1 22.2399 8.62084 15.1973
1 23.811 9.36379 15.9843
1 24.6047 8.57009 15.9843
1 24.6097 9.37939 15.1797
1 23.7928 8.59556 15.2057
1 25.3984 9.36379 15.9843
1 26.1921 8.57009 15.9843
1 26.1766 9.36624 15.1948
1 25.3928 8.56992 15.1912
1 26.9858 9.36379 15.9843
1 27.7795 8.57009 15.9843
1 27.7875 9.35931 15.1725
1 26.98 8.58912 15.1971
1 28.5732 9.36379 15.9843
1 29.3669 8.57009 15.9843
1 29.2944 9.37895 15.1639
1 28.5415 8.55994 15.1644
1 30 7.77639 15.9843
1 0.793701 6.98268 15.9843
1 0.806305 7.77684 15.1935
1 0.0745783 6.9927 15.1325
1 1.5874 7.77639 15.9843
1 2.3811 6.98268 15.9843
1 2.3927 7.79274 15.1915
1 1.6053 6.98149 15.1807
1 3.1748 7.77639 15.9843
1 3.9685 6.98268 15.9843
1 3.98007 7.76486 15.2034
1 3.17721 6.97446 15.1981
1 4.7622 7.77639 15.9843
1 5.5559 6.98268 15.9843
1 5.56356 7.77976 15.1997
1 4.76593 6.97939 15.1608
1 6.3496 7.77639 15.9843
1 7.1433 6.98268 15.9843
1 7.15612 7.76362 15.1952
1 6.34601 6.98354 15.197
1 7.93701 7.77639 15.9843
1 8.73071 6.98268 15.9843
1 8.75067 7.7796 15.1853
1 7.96451 6.98612 15.188
1 9.52441 7.77639 15.9843
1 10.3181 6.98268 15.9843
1 10.3191 7.78725 15.1873
1 9.51882 6.97872 15.1718
1 11.1118 7.77639 15.9843
1 11.9055 6.98268 15.9843
1 11.882 7.79106 15.1751
1 11.1135 7.00895 15.1904
1 12.6992 7.77639 15.9843
1 13.4929 6.98268 15.9843
1 13.516 7.78634 15.179
1 12.7041 7.01192 15.1937
1 14.2866 7.77639 15.9843
1 15.0803 6.98268 15.9843
1 15.0718 7.77202 15.1893
1 14.2792 6.96364 15.2049
1 15.874 7.77639 15.9843
1 16.6677 6.98268 15.9843
1 16.6645 7.77442 15.231
1 15.8495 6.9703 15.1932
1 17.4614 7.77639 15.9843
1 18.2551 6.98268 15.9843
1 18.2533 7.77562 15.1791
1 17.4533 7.01913 15.1922
1 19.0488 7.77639 15.9843
1 19.8425 6.98268 15.9843
1 19.8297 7.79914 15.183
1 19.0397 7.00195 15.1821
1 20.6362 7.77639 15.9843
1 21.4299 6.98268 15.9843
1 21.4484 7.76443 15.2021
1 20.6217 7.00665 15.1802
1 22.2236 7.77639 15.9843
1 23.0173 6.98268 15.9843
1 22.9902 7.81096 15.1802
1 22.22 7.00077 15.1899
1 23.811 7.77639 15.9843
1 24.6047 6.98268 15.9843
1 24.5917 7.78122 15.2058
1 23.8002 6.97405 15.2144
1 25.3984 7.77639 15.9843
1 26.1921 6.98268 15.9843
1 26.1712 7.74038 15.1902
1 25.3865 6.98366 15.1946
1 26.9858 7.77639 15.9843
1 27.7795 6.98268 15.9843
1 27.7756 7.78607 15.179
1 26.9561 6.97482 15.2184
1 28.5732 7.77639 15.9843
1 29.3669 6.98268 15.9843
1 29.279 7.77121 15.16
1 28.5259 6.97734 15.1898
1 30 6.18898 15.9843
1 0.793701 5.39528 15.9843
1 0.832339 6.16782 15.1606
1 0.0836153 5.40682 15.1263
1 1.5874 6.18898 15.9843
1 2.3811 5.39528 15.9843
1 2.38145 6.18254 15.181
1 1.59087 5.3676 15.1826
1 3.1748 6.18898 15.9843
1 3.9685 5.39528 15.9843
1 3.99491 6.1929 15.1939
1 3.17067 5.39582 15.1783
1 4.7622 6.18898 15.9843
1 5.5559 5.39528 15.9843
1 5.53668 6.21071 15.1752
1 4.75658 5.3934 15.1966
1 6.3496 6.18898 15.9843
1 7.1433 5.39528 15.9843
1 7.14304 6.19993 15.1933
1 6.36303 5.39451 15.1954
1 7.93701 6.18898 15.9843
1 8.73071 5.39528 15.9843
1 8.72937 6.15807 15.1964
1 7.92086 5.39452 15.2079
1 9.52441 6.18898 15.9843