LAMMPS (7 Aug 2019)
#--- Brush Variables---#
variable      f      equal  4
variable      M      equal  $(v_f * 20)                 # The number of polymer chains on each brush
variable      M      equal  80                 
variable      N      string 30                 # The number of beads per chain
variable      xhi    equal  $(sqrt(v_f) * 20)                 # The width of the polymer Brush
variable      xhi    equal  40                 
variable      yhi    equal  $(sqrt(v_f) * 20)                 # The length of the polymer Brush
variable      yhi    equal  40                 
variable      wthick equal  3                  # The thickness of the walls wthick=1,2,3,4 gives 2,3,4,6 layers respectively

#--- Simulation Variables ---#
variable       Temp      index 1        #0.8 1 1.68                 #[Grest96]
variable       Tstep     equal 0.005                       # Timestep in Tau (default = 0.005)
variable       Nequil    equal 300000                       # Number of timesteps to equilibrate
variable       Ncomp     equal 700000                     # Number of timesteps to compress - until no more occilation of walls
variable       Nshear    equal 4000000      #2000000                      # Number of timesteps to shear - use approx 4ns for 10m/s
variable       Nthermo   equal 1000                        # Number of timesteps between thermo data prints
variable       Ndump_e   equal 10000
variable       Ndump_c   equal 10000                      # Number of timesteps per dump file (compression)
variable       Ndump_s   equal 10000                       # Number of timesteps per dump file (shear)
variable       Wall_v    index 0.5   #0.001 0.01 0.1 0.2 0.4 0.6 0.8 1 1.2 1.4 1.6 1.8 2   # 0.005 0.05 0.1 0.5 1.5 0.001 0.003 0.2 0.0002 2                      # Wall velocity (A/fs) - equal to 10 m/s
variable       Pcomp     index 1 0.5 2 0.05 4 8

include        MDPBB.in
# This is an input script that creates a mono disperse polymer brush bilayer
# A coarse grained bead-spring model is used for the polymers which are end
# grafted to the surfaces of 2 opposing FCC walls at random sites.

#--- Initialization ---#

dimension     3
boundary      p p f
units         lj
atom_style    bond


#--- Moved to main.in ---#
#variable      M      equal  50                # The number of polymer chains on each brush
#variable      N      string 80                # The number of beads per chain
#variable      xhi    equal  15                # The width of the polymer Brush
#variable      yhi    equal  20                # The length of the polymer Brush
#variable      wthick equal  3                 # The thickness of the walls wthick=1,2,3,4 gives 2,3,4,6 layers respectively

variable      zhi    equal  $(1.1 * 2 * v_N + (2 * v_wthick))  # The initial height of the simulation box the value is such that no overlaps occur
variable      zhi    equal  72  
variable      z0     equal  $((v_zhi)/4 - (v_N)/30)          # This is the location at which to place the CoM of the molecule
variable      z0     equal  17          

print "The number of grafted chains = $(v_M)"
The number of grafted chains = 80
print "The number of beads per chain = $(v_N)"
The number of beads per chain = 30

variable      check  equal count(all)         # The number of atoms in the system
variable      ntwall equal count(twall)       # The number of atoms in the top wall
variable      nbwall equal count(bwall)       # The number of atoms in the bottom wall
variable      s equal 234897  #45335              # Seed for the RNG

print "zhi = ${zhi}"
zhi = 72

#--- Create the simulation box ---#

region        sbox block 0 ${xhi} 0 ${yhi} 0 ${zhi}
region        sbox block 0 40 0 ${yhi} 0 ${zhi}
region        sbox block 0 40 0 40 0 ${zhi}
region        sbox block 0 40 0 40 0 72
create_box    4 sbox bond/types 3 extra/bond/per/atom 12 extra/special/per/atom 2
Created orthogonal box = (0 0 0) to (40 40 72)
  2 by 4 by 4 MPI processor grid

mass          1 2.0                   # Wall atoms that are not grafted
mass          2 1.0                   # Grafted bead
mass          3 1.0                   # The rest of the beads on the chain
mass          4 2.0                   # Wall atoms that the chains are grafted to

bond_style    hybrid fene harmonic    # Finitely extensible linearly elastic bond between neighbouring beads
#bond_coeff    1 fene 30.0 1.5 0.0 0.0      # Values obtained from literature [Grest, Galushcko]
bond_coeff    1 fene 30.0 30.0 0.0 0.0
bond_coeff    2 fene 30.0 30.0 0.0 0.0       # This is the grafting bond between the polymer and the wall atom
special_bonds fene                    #
  0 = max # of 1-2 neighbors
  5 = max # of special neighbors
  special bonds CPU = 0.00291109 secs
pair_style	  lj/cut 1.122462         # LJ potential with rc=2^1/6
#pair_coeff	  * * 1.0 1.0             # LJ potential acts between all atoms
pair_coeff    1 1 0.0 0.0
pair_coeff    1 2 1.0 1.0
pair_coeff    1 3 1.0 1.0
pair_coeff    2 2 1.0 1.0
pair_coeff    2 3 1.0 1.0
pair_coeff    2 4 1.0 1.0
pair_coeff    3 3 1.0 1.0
pair_coeff    3 4 1.0 1.0
pair_coeff    4 4 0.0 0.0
neighbor      10 bin                  #
neigh_modify  one 4000

#--- Create and read the molecule file ---#
python        BSMolf input 1 $N format i file BSMolf.py
python        BSMolf input 1 30 format i file BSMolf.py
python        BSMolf invoke    # Call the python function with number of beads to write the mol file
molecule      bs     bsmol.txt     # Read the Mol file to define the polymer chain
Read molecule bs:
  30 atoms with max type 2
  29 bonds with max type 1
  0 angles with max type 0
  0 dihedrals with max type 0
  0 impropers with max type 0

#--- Define the FCC wall region ---#
region        wall  block 0 ${xhi} 0 ${yhi} 0 ${wthick}
region        wall  block 0 40 0 ${yhi} 0 ${wthick}
region        wall  block 0 40 0 40 0 ${wthick}
region        wall  block 0 40 0 40 0 3
lattice       fcc 1
Lattice spacing in x,y,z = 1.5874 1.5874 1.5874

#--- Create the Top Brush  (At the bottom then rotate 180 degrees to top) ---#

create_atoms  1 region wall
Created 5202 atoms
  create_atoms CPU = 0.00195289 secs
group         twall  region wall
5202 atoms in group twall
#group         tsurf  region wsurf

# A loop to insert the Chains into the sim box
variable      i loop $M                                   # Index to insert N total number of chains
variable      i loop 80                                   
label         loop                                        # Start of loop
variable      randni equal round(random(1,${ntwall},$s))  # Pick a random "top" wall atom
variable      randni equal round(random(1,5202,$s))  
variable      randni equal round(random(1,5202,234897))  
variable      randatomi equal ${randni}                   # This is to obtain an integer number for atom-id
variable      randatomi equal 3268                   
variable      randzi equal z[${randatomi}]                # Determine the z coordinate of the chosen atom
variable      randzi equal z[3268]                
# if the chosen atom is not a surface atom then restart the loop
if            "${randzi} < $(v_wthick - 0.7)" then "jump MDPBB.in loop"
jump MDPBB.in loop
variable      randni equal round(random(1,${ntwall},$s))  # Pick a random "top" wall atom
variable      randni equal round(random(1,5202,$s))  
variable      randni equal round(random(1,5202,234897))  
variable      randatomi equal ${randni}                   # This is to obtain an integer number for atom-id
variable      randatomi equal 818                   
variable      randzi equal z[${randatomi}]                # Determine the z coordinate of the chosen atom
variable      randzi equal z[818]                
# if the chosen atom is not a surface atom then restart the loop
if            "${randzi} < $(v_wthick - 0.7)" then "jump MDPBB.in loop"
jump MDPBB.in loop
variable      randni equal round(random(1,${ntwall},$s))  # Pick a random "top" wall atom
variable      randni equal round(random(1,5202,$s))  
variable      randni equal round(random(1,5202,234897))  
variable      randatomi equal ${randni}                   # This is to obtain an integer number for atom-id
variable      randatomi equal 3930                   
variable      randzi equal z[${randatomi}]                # Determine the z coordinate of the chosen atom
variable      randzi equal z[3930]                
# if the chosen atom is not a surface atom then restart the loop
if            "${randzi} < $(v_wthick - 0.7)" then "jump MDPBB.in loop"
set           atom ${randatomi} type 4                    # Set this grafted wall atom as a new type
set           atom 3930 type 4                    
  1 settings made for type
group         twg id ${randatomi}                         # Add this atom to a top-wall-grafted group
group         twg id 3930                         
1 atoms in group twg
variable      twgcount equal count(twg)
print         "twg contains ${twgcount}"
twg contains 1
print         "i = $(v_i)"                                # The index i should always be equal to the number of atom in twg
i = 1
variable      x0 equal x[${randatomi}]                    # Determine its x-coord
variable      x0 equal x[3930]                    
variable      y0 equal y[${randatomi}]                    # Determine its y-coord
variable      y0 equal y[3930]                    
variable      check0 equal ${check}                       # Count the number of atoms in the simulation
variable      check0 equal 5202                       
variable      b equal ${check}+1                          # The grafted bead id will be one higher after being inserted
variable      b equal 5202+1                          
if            "${twgcount} != $(v_i)" then "jump MDPBB.in loop"
# Otherwise insert the chain directly above the chosen wall atom pointing perpendicular to the wall
create_atoms  1 single ${x0} ${y0} ${z0} mol bs 24987 units box remap yes rotate 0 0 0 1
create_atoms  1 single 30.1606199873958 ${y0} ${z0} mol bs 24987 units box remap yes rotate 0 0 0 1
create_atoms  1 single 30.1606199873958 19.8425131496025 ${z0} mol bs 24987 units box remap yes rotate 0 0 0 1
create_atoms  1 single 30.1606199873958 19.8425131496025 17 mol bs 24987 units box remap yes rotate 0 0 0 1
Created 30 atoms
  create_atoms CPU = 0.00152898 secs
variable      check1 equal ${check}               # Count the new total number of atoms
variable      check1 equal 5232               
# Check that the molecule has indeed been inserted (This check is no longer an issue).
if            "${check1} != ${check0}" then "create_bonds  single/bond 2 ${randatomi} $b" "next i"
create_bonds  single/bond 2 ${randatomi} $b
create_bonds  single/bond 2 3930 $b
create_bonds  single/bond 2 3930 5203
  2 = max # of 1-2 neighbors
  5 = max # of special neighbors
  special bonds CPU = 0.000951052 secs
next i
jump MDPBB.in loop    # End of the loop
variable      randni equal round(random(1,${ntwall},$s))  # Pick a random "top" wall atom
variable      randni equal round(random(1,5202,$s))  
variable      randni equal round(random(1,5202,234897))  
variable      randatomi equal ${randni}                   # This is to obtain an integer number for atom-id
variable      randatomi equal 3965                   
variable      randzi equal z[${randatomi}]                # Determine the z coordinate of the chosen atom
variable      randzi equal z[3965]                
# if the chosen atom is not a surface atom then restart the loop
if            "${randzi} < $(v_wthick - 0.7)" then "jump MDPBB.in loop"
jump MDPBB.in loop
variable      randni equal round(random(1,${ntwall},$s))  # Pick a random "top" wall atom
variable      randni equal round(random(1,5202,$s))  
variable      randni equal round(random(1,5202,234897))  
variable      randatomi equal ${randni}                   # This is to obtain an integer number for atom-id
variable      randatomi equal 3779                   
variable      randzi equal z[${randatomi}]                # Determine the z coordinate of the chosen atom
variable      randzi equal z[3779]                
# if the chosen atom is not a surface atom then restart the loop
if            "${randzi} < $(v_wthick - 0.7)" then "jump MDPBB.in loop"
set           atom ${randatomi} type 4                    # Set this grafted wall atom as a new type
set           atom 3779 type 4                    
  1 settings made for type
group         twg id ${randatomi}                         # Add this atom to a top-wall-grafted group
group         twg id 3779                         
2 atoms in group twg
variable      twgcount equal count(twg)
print         "twg contains ${twgcount}"
twg contains 2
print         "i = $(v_i)"                                # The index i should always be equal to the number of atom in twg
i = 2
variable      x0 equal x[${randatomi}]                    # Determine its x-coord
variable      x0 equal x[3779]                    
variable      y0 equal y[${randatomi}]                    # Determine its y-coord
variable      y0 equal y[3779]                    
variable      check0 equal ${check}                       # Count the number of atoms in the simulation
variable      check0 equal 5232                       
variable      b equal ${check}+1                          # The grafted bead id will be one higher after being inserted
variable      b equal 5232+1                          
if            "${twgcount} != $(v_i)" then "jump MDPBB.in loop"
# Otherwise insert the chain directly above the chosen wall atom pointing perpendicular to the wall
create_atoms  1 single ${x0} ${y0} ${z0} mol bs 24987 units box remap yes rotate 0 0 0 1
create_atoms  1 single 30.9543205133799 ${y0} ${z0} mol bs 24987 units box remap yes rotate 0 0 0 1
create_atoms  1 single 30.9543205133799 14.2866094677138 ${z0} mol bs 24987 units box remap yes rotate 0 0 0 1
create_atoms  1 single 30.9543205133799 14.2866094677138 17 mol bs 24987 units box remap yes rotate 0 0 0 1
Created 30 atoms
  create_atoms CPU = 0.000293016 secs
variable      check1 equal ${check}               # Count the new total number of atoms
variable      check1 equal 5262               
# Check that the molecule has indeed been inserted (This check is no longer an issue).
if            "${check1} != ${check0}" then "create_bonds  single/bond 2 ${randatomi} $b" "next i"
create_bonds  single/bond 2 ${randatomi} $b
create_bonds  single/bond 2 3779 $b
create_bonds  single/bond 2 3779 5233
  2 = max # of 1-2 neighbors
  5 = max # of special neighbors
  special bonds CPU = 0.000658989 secs
next i
jump MDPBB.in loop    # End of the loop
variable      randni equal round(random(1,${ntwall},$s))  # Pick a random "top" wall atom
variable      randni equal round(random(1,5202,$s))  
variable      randni equal round(random(1,5202,234897))  
variable      randatomi equal ${randni}                   # This is to obtain an integer number for atom-id
variable      randatomi equal 5125                   
variable      randzi equal z[${randatomi}]                # Determine the z coordinate of the chosen atom
variable      randzi equal z[5125]                
# if the chosen atom is not a surface atom then restart the loop
if            "${randzi} < $(v_wthick - 0.7)" then "jump MDPBB.in loop"
set           atom ${randatomi} type 4                    # Set this grafted wall atom as a new type
set           atom 5125 type 4                    
  1 settings made for type
group         twg id ${randatomi}                         # Add this atom to a top-wall-grafted group
group         twg id 5125                         
3 atoms in group twg
variable      twgcount equal count(twg)
print         "twg contains ${twgcount}"
twg contains 3
print         "i = $(v_i)"                                # The index i should always be equal to the number of atom in twg
i = 3
variable      x0 equal x[${randatomi}]                    # Determine its x-coord
variable      x0 equal x[5125]                    
variable      y0 equal y[${randatomi}]                    # Determine its y-coord
variable      y0 equal y[5125]                    
variable      check0 equal ${check}                       # Count the number of atoms in the simulation
variable      check0 equal 5262                       
variable      b equal ${check}+1                          # The grafted bead id will be one higher after being inserted
variable      b equal 5262+1                          
if            "${twgcount} != $(v_i)" then "jump MDPBB.in loop"
# Otherwise insert the chain directly above the chosen wall atom pointing perpendicular to the wall
create_atoms  1 single ${x0} ${y0} ${z0} mol bs 24987 units box remap yes rotate 0 0 0 1
create_atoms  1 single 38.0976252472368 ${y0} ${z0} mol bs 24987 units box remap yes rotate 0 0 0 1
create_atoms  1 single 38.0976252472368 37.3039247212527 ${z0} mol bs 24987 units box remap yes rotate 0 0 0 1
create_atoms  1 single 38.0976252472368 37.3039247212527 17 mol bs 24987 units box remap yes rotate 0 0 0 1
Created 30 atoms
  create_atoms CPU = 0.00122595 secs
variable      check1 equal ${check}               # Count the new total number of atoms
variable      check1 equal 5292               
# Check that the molecule has indeed been inserted (This check is no longer an issue).
if            "${check1} != ${check0}" then "create_bonds  single/bond 2 ${randatomi} $b" "next i"
create_bonds  single/bond 2 ${randatomi} $b
create_bonds  single/bond 2 5125 $b
create_bonds  single/bond 2 5125 5263
  2 = max # of 1-2 neighbors
  5 = max # of special neighbors
  special bonds CPU = 0.000642061 secs
next i
jump MDPBB.in loop    # End of the loop
variable      randni equal round(random(1,${ntwall},$s))  # Pick a random "top" wall atom
variable      randni equal round(random(1,5202,$s))  
variable      randni equal round(random(1,5202,234897))  
variable      randatomi equal ${randni}                   # This is to obtain an integer number for atom-id
variable      randatomi equal 2473                   
variable      randzi equal z[${randatomi}]                # Determine the z coordinate of the chosen atom
variable      randzi equal z[2473]                
# if the chosen atom is not a surface atom then restart the loop
if            "${randzi} < $(v_wthick - 0.7)" then "jump MDPBB.in loop"
set           atom ${randatomi} type 4                    # Set this grafted wall atom as a new type
set           atom 2473 type 4                    
  1 settings made for type
group         twg id ${randatomi}                         # Add this atom to a top-wall-grafted group
group         twg id 2473                         
4 atoms in group twg
variable      twgcount equal count(twg)
print         "twg contains ${twgcount}"
twg contains 4
print         "i = $(v_i)"                                # The index i should always be equal to the number of atom in twg
i = 4
variable      x0 equal x[${randatomi}]                    # Determine its x-coord
variable      x0 equal x[2473]                    
variable      y0 equal y[${randatomi}]                    # Determine its y-coord
variable      y0 equal y[2473]                    
variable      check0 equal ${check}                       # Count the number of atoms in the simulation
variable      check0 equal 5292                       
variable      b equal ${check}+1                          # The grafted bead id will be one higher after being inserted
variable      b equal 5292+1                          
if            "${twgcount} != $(v_i)" then "jump MDPBB.in loop"
# Otherwise insert the chain directly above the chosen wall atom pointing perpendicular to the wall
create_atoms  1 single ${x0} ${y0} ${z0} mol bs 24987 units box remap yes rotate 0 0 0 1
create_atoms  1 single 0.7937005259841 ${y0} ${z0} mol bs 24987 units box remap yes rotate 0 0 0 1
create_atoms  1 single 0.7937005259841 34.9228231433004 ${z0} mol bs 24987 units box remap yes rotate 0 0 0 1
create_atoms  1 single 0.7937005259841 34.9228231433004 17 mol bs 24987 units box remap yes rotate 0 0 0 1
Created 30 atoms
  create_atoms CPU = 0.00122595 secs
variable      check1 equal ${check}               # Count the new total number of atoms
variable      check1 equal 5322               
# Check that the molecule has indeed been inserted (This check is no longer an issue).
if            "${check1} != ${check0}" then "create_bonds  single/bond 2 ${randatomi} $b" "next i"
create_bonds  single/bond 2 ${randatomi} $b
create_bonds  single/bond 2 2473 $b
create_bonds  single/bond 2 2473 5293
  2 = max # of 1-2 neighbors
  5 = max # of special neighbors
  special bonds CPU = 0.000635862 secs
next i
jump MDPBB.in loop    # End of the loop
variable      randni equal round(random(1,${ntwall},$s))  # Pick a random "top" wall atom
variable      randni equal round(random(1,5202,$s))  
variable      randni equal round(random(1,5202,234897))  
variable      randatomi equal ${randni}                   # This is to obtain an integer number for atom-id
variable      randatomi equal 1743                   
variable      randzi equal z[${randatomi}]                # Determine the z coordinate of the chosen atom
variable      randzi equal z[1743]                
# if the chosen atom is not a surface atom then restart the loop
if            "${randzi} < $(v_wthick - 0.7)" then "jump MDPBB.in loop"
set           atom ${randatomi} type 4                    # Set this grafted wall atom as a new type
set           atom 1743 type 4                    
  1 settings made for type
group         twg id ${randatomi}                         # Add this atom to a top-wall-grafted group
group         twg id 1743                         
5 atoms in group twg
variable      twgcount equal count(twg)
print         "twg contains ${twgcount}"
twg contains 5
print         "i = $(v_i)"                                # The index i should always be equal to the number of atom in twg
i = 5
variable      x0 equal x[${randatomi}]                    # Determine its x-coord
variable      x0 equal x[1743]                    
variable      y0 equal y[${randatomi}]                    # Determine its y-coord
variable      y0 equal y[1743]                    
variable      check0 equal ${check}                       # Count the number of atoms in the simulation
variable      check0 equal 5322                       
variable      b equal ${check}+1                          # The grafted bead id will be one higher after being inserted
variable      b equal 5322+1                          
if            "${twgcount} != $(v_i)" then "jump MDPBB.in loop"
# Otherwise insert the chain directly above the chosen wall atom pointing perpendicular to the wall
create_atoms  1 single ${x0} ${y0} ${z0} mol bs 24987 units box remap yes rotate 0 0 0 1
create_atoms  1 single 10.3181068377933 ${y0} ${z0} mol bs 24987 units box remap yes rotate 0 0 0 1
create_atoms  1 single 10.3181068377933 22.2236147275548 ${z0} mol bs 24987 units box remap yes rotate 0 0 0 1
create_atoms  1 single 10.3181068377933 22.2236147275548 17 mol bs 24987 units box remap yes rotate 0 0 0 1
Created 30 atoms
  create_atoms CPU = 0.00118613 secs
variable      check1 equal ${check}               # Count the new total number of atoms
variable      check1 equal 5352               
# Check that the molecule has indeed been inserted (This check is no longer an issue).
if            "${check1} != ${check0}" then "create_bonds  single/bond 2 ${randatomi} $b" "next i"
create_bonds  single/bond 2 ${randatomi} $b
create_bonds  single/bond 2 1743 $b
create_bonds  single/bond 2 1743 5323
  2 = max # of 1-2 neighbors
  5 = max # of special neighbors
  special bonds CPU = 0.00063014 secs
next i
jump MDPBB.in loop    # End of the loop
variable      randni equal round(random(1,${ntwall},$s))  # Pick a random "top" wall atom
variable      randni equal round(random(1,5202,$s))  
variable      randni equal round(random(1,5202,234897))  
variable      randatomi equal ${randni}                   # This is to obtain an integer number for atom-id
variable      randatomi equal 2250                   
variable      randzi equal z[${randatomi}]                # Determine the z coordinate of the chosen atom
variable      randzi equal z[2250]                
# if the chosen atom is not a surface atom then restart the loop
if            "${randzi} < $(v_wthick - 0.7)" then "jump MDPBB.in loop"
jump MDPBB.in loop
variable      randni equal round(random(1,${ntwall},$s))  # Pick a random "top" wall atom
variable      randni equal round(random(1,5202,$s))  
variable      randni equal round(random(1,5202,234897))  
variable      randatomi equal ${randni}                   # This is to obtain an integer number for atom-id
variable      randatomi equal 3765                   
variable      randzi equal z[${randatomi}]                # Determine the z coordinate of the chosen atom
variable      randzi equal z[3765]                
# if the chosen atom is not a surface atom then restart the loop
if            "${randzi} < $(v_wthick - 0.7)" then "jump MDPBB.in loop"
jump MDPBB.in loop
variable      randni equal round(random(1,${ntwall},$s))  # Pick a random "top" wall atom
variable      randni equal round(random(1,5202,$s))  
variable      randni equal round(random(1,5202,234897))  
variable      randatomi equal ${randni}                   # This is to obtain an integer number for atom-id
variable      randatomi equal 4657                   
variable      randzi equal z[${randatomi}]                # Determine the z coordinate of the chosen atom
variable      randzi equal z[4657]                
# if the chosen atom is not a surface atom then restart the loop
if            "${randzi} < $(v_wthick - 0.7)" then "jump MDPBB.in loop"
jump MDPBB.in loop
variable      randni equal round(random(1,${ntwall},$s))  # Pick a random "top" wall atom
variable      randni equal round(random(1,5202,$s))  
variable      randni equal round(random(1,5202,234897))  
variable      randatomi equal ${randni}                   # This is to obtain an integer number for atom-id
variable      randatomi equal 38                   
variable      randzi equal z[${randatomi}]                # Determine the z coordinate of the chosen atom
variable      randzi equal z[38]                
# if the chosen atom is not a surface atom then restart the loop
if            "${randzi} < $(v_wthick - 0.7)" then "jump MDPBB.in loop"
jump MDPBB.in loop
variable      randni equal round(random(1,${ntwall},$s))  # Pick a random "top" wall atom
variable      randni equal round(random(1,5202,$s))  
variable      randni equal round(random(1,5202,234897))  
variable      randatomi equal ${randni}                   # This is to obtain an integer number for atom-id
variable      randatomi equal 990                   
variable      randzi equal z[${randatomi}]                # Determine the z coordinate of the chosen atom
variable      randzi equal z[990]                
# if the chosen atom is not a surface atom then restart the loop
if            "${randzi} < $(v_wthick - 0.7)" then "jump MDPBB.in loop"
jump MDPBB.in loop
variable      randni equal round(random(1,${ntwall},$s))  # Pick a random "top" wall atom
variable      randni equal round(random(1,5202,$s))  
variable      randni equal round(random(1,5202,234897))  
variable      randatomi equal ${randni}                   # This is to obtain an integer number for atom-id
variable      randatomi equal 1700                   
variable      randzi equal z[${randatomi}]                # Determine the z coordinate of the chosen atom
variable      randzi equal z[1700]                
# if the chosen atom is not a surface atom then restart the loop
if            "${randzi} < $(v_wthick - 0.7)" then "jump MDPBB.in loop"
set           atom ${randatomi} type 4                    # Set this grafted wall atom as a new type
set           atom 1700 type 4                    
  1 settings made for type
group         twg id ${randatomi}                         # Add this atom to a top-wall-grafted group
group         twg id 1700                         
6 atoms in group twg
variable      twgcount equal count(twg)
print         "twg contains ${twgcount}"
twg contains 6
print         "i = $(v_i)"                                # The index i should always be equal to the number of atom in twg
i = 6
variable      x0 equal x[${randatomi}]                    # Determine its x-coord
variable      x0 equal x[1700]                    
variable      y0 equal y[${randatomi}]                    # Determine its y-coord
variable      y0 equal y[1700]                    
variable      check0 equal ${check}                       # Count the number of atoms in the simulation
variable      check0 equal 5352                       
variable      b equal ${check}+1                          # The grafted bead id will be one higher after being inserted
variable      b equal 5352+1                          
if            "${twgcount} != $(v_i)" then "jump MDPBB.in loop"
# Otherwise insert the chain directly above the chosen wall atom pointing perpendicular to the wall
create_atoms  1 single ${x0} ${y0} ${z0} mol bs 24987 units box remap yes rotate 0 0 0 1
create_atoms  1 single 12.6992084157456 ${y0} ${z0} mol bs 24987 units box remap yes rotate 0 0 0 1
create_atoms  1 single 12.6992084157456 21.4299142015707 ${z0} mol bs 24987 units box remap yes rotate 0 0 0 1
create_atoms  1 single 12.6992084157456 21.4299142015707 17 mol bs 24987 units box remap yes rotate 0 0 0 1
Created 30 atoms
  create_atoms CPU = 0.000281811 secs
variable      check1 equal ${check}               # Count the new total number of atoms
variable      check1 equal 5382               
# Check that the molecule has indeed been inserted (This check is no longer an issue).
if            "${check1} != ${check0}" then "create_bonds  single/bond 2 ${randatomi} $b" "next i"
create_bonds  single/bond 2 ${randatomi} $b
create_bonds  single/bond 2 1700 $b
create_bonds  single/bond 2 1700 5353
  2 = max # of 1-2 neighbors
  5 = max # of special neighbors
  special bonds CPU = 0.0006392 secs
next i
jump MDPBB.in loop    # End of the loop
variable      randni equal round(random(1,${ntwall},$s))  # Pick a random "top" wall atom
variable      randni equal round(random(1,5202,$s))  
variable      randni equal round(random(1,5202,234897))  
variable      randatomi equal ${randni}                   # This is to obtain an integer number for atom-id
variable      randatomi equal 4214                   
variable      randzi equal z[${randatomi}]                # Determine the z coordinate of the chosen atom
variable      randzi equal z[4214]                
# if the chosen atom is not a surface atom then restart the loop
if            "${randzi} < $(v_wthick - 0.7)" then "jump MDPBB.in loop"
jump MDPBB.in loop
variable      randni equal round(random(1,${ntwall},$s))  # Pick a random "top" wall atom
variable      randni equal round(random(1,5202,$s))  
variable      randni equal round(random(1,5202,234897))  
variable      randatomi equal ${randni}                   # This is to obtain an integer number for atom-id
variable      randatomi equal 3691                   
variable      randzi equal z[${randatomi}]                # Determine the z coordinate of the chosen atom
variable      randzi equal z[3691]                
# if the chosen atom is not a surface atom then restart the loop
if            "${randzi} < $(v_wthick - 0.7)" then "jump MDPBB.in loop"
set           atom ${randatomi} type 4                    # Set this grafted wall atom as a new type
set           atom 3691 type 4                    
  1 settings made for type
group         twg id ${randatomi}                         # Add this atom to a top-wall-grafted group
group         twg id 3691                         
7 atoms in group twg
variable      twgcount equal count(twg)
print         "twg contains ${twgcount}"
twg contains 7
print         "i = $(v_i)"                                # The index i should always be equal to the number of atom in twg
i = 7
variable      x0 equal x[${randatomi}]                    # Determine its x-coord
variable      x0 equal x[3691]                    
variable      y0 equal y[${randatomi}]                    # Determine its y-coord
variable      y0 equal y[3691]                    
variable      check0 equal ${check}                       # Count the number of atoms in the simulation
variable      check0 equal 5382                       
variable      b equal ${check}+1                          # The grafted bead id will be one higher after being inserted
variable      b equal 5382+1                          
if            "${twgcount} != $(v_i)" then "jump MDPBB.in loop"
# Otherwise insert the chain directly above the chosen wall atom pointing perpendicular to the wall
create_atoms  1 single ${x0} ${y0} ${z0} mol bs 24987 units box remap yes rotate 0 0 0 1
create_atoms  1 single 35.7165236692845 ${y0} ${z0} mol bs 24987 units box remap yes rotate 0 0 0 1
create_atoms  1 single 35.7165236692845 11.1118073637774 ${z0} mol bs 24987 units box remap yes rotate 0 0 0 1
create_atoms  1 single 35.7165236692845 11.1118073637774 17 mol bs 24987 units box remap yes rotate 0 0 0 1
Created 30 atoms
  create_atoms CPU = 0.000266075 secs
variable      check1 equal ${check}               # Count the new total number of atoms
variable      check1 equal 5412               
# Check that the molecule has indeed been inserted (This check is no longer an issue).
if            "${check1} != ${check0}" then "create_bonds  single/bond 2 ${randatomi} $b" "next i"
create_bonds  single/bond 2 ${randatomi} $b
create_bonds  single/bond 2 3691 $b
create_bonds  single/bond 2 3691 5383
  2 = max # of 1-2 neighbors
  5 = max # of special neighbors
  special bonds CPU = 0.000628948 secs
next i
jump MDPBB.in loop    # End of the loop
variable      randni equal round(random(1,${ntwall},$s))  # Pick a random "top" wall atom
variable      randni equal round(random(1,5202,$s))  
variable      randni equal round(random(1,5202,234897))  
variable      randatomi equal ${randni}                   # This is to obtain an integer number for atom-id
variable      randatomi equal 3583                   
variable      randzi equal z[${randatomi}]                # Determine the z coordinate of the chosen atom
variable      randzi equal z[3583]                
# if the chosen atom is not a surface atom then restart the loop
if            "${randzi} < $(v_wthick - 0.7)" then "jump MDPBB.in loop"
jump MDPBB.in loop
variable      randni equal round(random(1,${ntwall},$s))  # Pick a random "top" wall atom
variable      randni equal round(random(1,5202,$s))  
variable      randni equal round(random(1,5202,234897))  
variable      randatomi equal ${randni}                   # This is to obtain an integer number for atom-id
variable      randatomi equal 2905                   
variable      randzi equal z[${randatomi}]                # Determine the z coordinate of the chosen atom
variable      randzi equal z[2905]                
# if the chosen atom is not a surface atom then restart the loop
if            "${randzi} < $(v_wthick - 0.7)" then "jump MDPBB.in loop"
jump MDPBB.in loop
variable      randni equal round(random(1,${ntwall},$s))  # Pick a random "top" wall atom
variable      randni equal round(random(1,5202,$s))  
variable      randni equal round(random(1,5202,234897))  
variable      randatomi equal ${randni}                   # This is to obtain an integer number for atom-id
variable      randatomi equal 4052                   
variable      randzi equal z[${randatomi}]                # Determine the z coordinate of the chosen atom
variable      randzi equal z[4052]                
# if the chosen atom is not a surface atom then restart the loop
if            "${randzi} < $(v_wthick - 0.7)" then "jump MDPBB.in loop"
jump MDPBB.in loop
variable      randni equal round(random(1,${ntwall},$s))  # Pick a random "top" wall atom
variable      randni equal round(random(1,5202,$s))  
variable      randni equal round(random(1,5202,234897))  
variable      randatomi equal ${randni}                   # This is to obtain an integer number for atom-id
variable      randatomi equal 3200                   
variable      randzi equal z[${randatomi}]                # Determine the z coordinate of the chosen atom
variable      randzi equal z[3200]                
# if the chosen atom is not a surface atom then restart the loop
if            "${randzi} < $(v_wthick - 0.7)" then "jump MDPBB.in loop"
set           atom ${randatomi} type 4                    # Set this grafted wall atom as a new type
set           atom 3200 type 4                    
  1 settings made for type
group         twg id ${randatomi}                         # Add this atom to a top-wall-grafted group
group         twg id 3200                         
8 atoms in group twg
variable      twgcount equal count(twg)
print         "twg contains ${twgcount}"
twg contains 8
print         "i = $(v_i)"                                # The index i should always be equal to the number of atom in twg
i = 8
variable      x0 equal x[${randatomi}]                    # Determine its x-coord
variable      x0 equal x[3200]                    
variable      y0 equal y[${randatomi}]                    # Determine its y-coord
variable      y0 equal y[3200]                    
variable      check0 equal ${check}                       # Count the number of atoms in the simulation
variable      check0 equal 5412                       
variable      b equal ${check}+1                          # The grafted bead id will be one higher after being inserted
variable      b equal 5412+1                          
if            "${twgcount} != $(v_i)" then "jump MDPBB.in loop"
# Otherwise insert the chain directly above the chosen wall atom pointing perpendicular to the wall
create_atoms  1 single ${x0} ${y0} ${z0} mol bs 24987 units box remap yes rotate 0 0 0 1
create_atoms  1 single 29.3669194614117 ${y0} ${z0} mol bs 24987 units box remap yes rotate 0 0 0 1
create_atoms  1 single 29.3669194614117 6.3496042078728 ${z0} mol bs 24987 units box remap yes rotate 0 0 0 1
create_atoms  1 single 29.3669194614117 6.3496042078728 17 mol bs 24987 units box remap yes rotate 0 0 0 1
Created 30 atoms
  create_atoms CPU = 0.001194 secs
variable      check1 equal ${check}               # Count the new total number of atoms
variable      check1 equal 5442               
# Check that the molecule has indeed been inserted (This check is no longer an issue).
if            "${check1} != ${check0}" then "create_bonds  single/bond 2 ${randatomi} $b" "next i"
create_bonds  single/bond 2 ${randatomi} $b
create_bonds  single/bond 2 3200 $b
create_bonds  single/bond 2 3200 5413
  2 = max # of 1-2 neighbors
  5 = max # of special neighbors
  special bonds CPU = 0.000629902 secs
next i
jump MDPBB.in loop    # End of the loop
variable      randni equal round(random(1,${ntwall},$s))  # Pick a random "top" wall atom
variable      randni equal round(random(1,5202,$s))  
variable      randni equal round(random(1,5202,234897))  
variable      randatomi equal ${randni}                   # This is to obtain an integer number for atom-id
variable      randatomi equal 3224                   
variable      randzi equal z[${randatomi}]                # Determine the z coordinate of the chosen atom
variable      randzi equal z[3224]                
# if the chosen atom is not a surface atom then restart the loop
if            "${randzi} < $(v_wthick - 0.7)" then "jump MDPBB.in loop"
set           atom ${randatomi} type 4                    # Set this grafted wall atom as a new type
set           atom 3224 type 4                    
  1 settings made for type
group         twg id ${randatomi}                         # Add this atom to a top-wall-grafted group
group         twg id 3224                         
9 atoms in group twg
variable      twgcount equal count(twg)
print         "twg contains ${twgcount}"
twg contains 9
print         "i = $(v_i)"                                # The index i should always be equal to the number of atom in twg
i = 9
variable      x0 equal x[${randatomi}]                    # Determine its x-coord
variable      x0 equal x[3224]                    
variable      y0 equal y[${randatomi}]                    # Determine its y-coord
variable      y0 equal y[3224]                    
variable      check0 equal ${check}                       # Count the number of atoms in the simulation
variable      check0 equal 5442                       
variable      b equal ${check}+1                          # The grafted bead id will be one higher after being inserted
variable      b equal 5442+1                          
if            "${twgcount} != $(v_i)" then "jump MDPBB.in loop"
# Otherwise insert the chain directly above the chosen wall atom pointing perpendicular to the wall
create_atoms  1 single ${x0} ${y0} ${z0} mol bs 24987 units box remap yes rotate 0 0 0 1
create_atoms  1 single 38.8913257732209 ${y0} ${z0} mol bs 24987 units box remap yes rotate 0 0 0 1
create_atoms  1 single 38.8913257732209 6.3496042078728 ${z0} mol bs 24987 units box remap yes rotate 0 0 0 1
create_atoms  1 single 38.8913257732209 6.3496042078728 17 mol bs 24987 units box remap yes rotate 0 0 0 1
Created 30 atoms
  create_atoms CPU = 0.000312805 secs
variable      check1 equal ${check}               # Count the new total number of atoms
variable      check1 equal 5472               
# Check that the molecule has indeed been inserted (This check is no longer an issue).
if            "${check1} != ${check0}" then "create_bonds  single/bond 2 ${randatomi} $b" "next i"
create_bonds  single/bond 2 ${randatomi} $b
create_bonds  single/bond 2 3224 $b
create_bonds  single/bond 2 3224 5443
  2 = max # of 1-2 neighbors
  5 = max # of special neighbors
  special bonds CPU = 0.000638008 secs
next i
jump MDPBB.in loop    # End of the loop
variable      randni equal round(random(1,${ntwall},$s))  # Pick a random "top" wall atom
variable      randni equal round(random(1,5202,$s))  
variable      randni equal round(random(1,5202,234897))  
variable      randatomi equal ${randni}                   # This is to obtain an integer number for atom-id
variable      randatomi equal 623                   
variable      randzi equal z[${randatomi}]                # Determine the z coordinate of the chosen atom
variable      randzi equal z[623]                
# if the chosen atom is not a surface atom then restart the loop
if            "${randzi} < $(v_wthick - 0.7)" then "jump MDPBB.in loop"
jump MDPBB.in loop
variable      randni equal round(random(1,${ntwall},$s))  # Pick a random "top" wall atom
variable      randni equal round(random(1,5202,$s))  
variable      randni equal round(random(1,5202,234897))  
variable      randatomi equal ${randni}                   # This is to obtain an integer number for atom-id
variable      randatomi equal 4530                   
variable      randzi equal z[${randatomi}]                # Determine the z coordinate of the chosen atom
variable      randzi equal z[4530]                
# if the chosen atom is not a surface atom then restart the loop
if            "${randzi} < $(v_wthick - 0.7)" then "jump MDPBB.in loop"
set           atom ${randatomi} type 4                    # Set this grafted wall atom as a new type
set           atom 4530 type 4                    
  1 settings made for type
group         twg id ${randatomi}                         # Add this atom to a top-wall-grafted group
group         twg id 4530                         
10 atoms in group twg
variable      twgcount equal count(twg)
print         "twg contains ${twgcount}"
twg contains 10
print         "i = $(v_i)"                                # The index i should always be equal to the number of atom in twg
i = 10
variable      x0 equal x[${randatomi}]                    # Determine its x-coord
variable      x0 equal x[4530]                    
variable      y0 equal y[${randatomi}]                    # Determine its y-coord
variable      y0 equal y[4530]                    
variable      check0 equal ${check}                       # Count the number of atoms in the simulation
variable      check0 equal 5472                       
variable      b equal ${check}+1                          # The grafted bead id will be one higher after being inserted
variable      b equal 5472+1                          
if            "${twgcount} != $(v_i)" then "jump MDPBB.in loop"
# Otherwise insert the chain directly above the chosen wall atom pointing perpendicular to the wall
create_atoms  1 single ${x0} ${y0} ${z0} mol bs 24987 units box remap yes rotate 0 0 0 1
create_atoms  1 single 30.1606199873958 ${y0} ${z0} mol bs 24987 units box remap yes rotate 0 0 0 1
create_atoms  1 single 30.1606199873958 29.3669194614117 ${z0} mol bs 24987 units box remap yes rotate 0 0 0 1
create_atoms  1 single 30.1606199873958 29.3669194614117 17 mol bs 24987 units box remap yes rotate 0 0 0 1
Created 30 atoms
  create_atoms CPU = 0.00119305 secs
variable      check1 equal ${check}               # Count the new total number of atoms
variable      check1 equal 5502               
# Check that the molecule has indeed been inserted (This check is no longer an issue).
if            "${check1} != ${check0}" then "create_bonds  single/bond 2 ${randatomi} $b" "next i"
create_bonds  single/bond 2 ${randatomi} $b
create_bonds  single/bond 2 4530 $b
create_bonds  single/bond 2 4530 5473
  2 = max # of 1-2 neighbors
  5 = max # of special neighbors
  special bonds CPU = 0.000641108 secs
next i
jump MDPBB.in loop    # End of the loop
variable      randni equal round(random(1,${ntwall},$s))  # Pick a random "top" wall atom
variable      randni equal round(random(1,5202,$s))  
variable      randni equal round(random(1,5202,234897))  
variable      randatomi equal ${randni}                   # This is to obtain an integer number for atom-id
variable      randatomi equal 3131                   
variable      randzi equal z[${randatomi}]                # Determine the z coordinate of the chosen atom
variable      randzi equal z[3131]                
# if the chosen atom is not a surface atom then restart the loop
if            "${randzi} < $(v_wthick - 0.7)" then "jump MDPBB.in loop"
set           atom ${randatomi} type 4                    # Set this grafted wall atom as a new type
set           atom 3131 type 4                    
  1 settings made for type
group         twg id ${randatomi}                         # Add this atom to a top-wall-grafted group
group         twg id 3131                         
11 atoms in group twg
variable      twgcount equal count(twg)
print         "twg contains ${twgcount}"
twg contains 11
print         "i = $(v_i)"                                # The index i should always be equal to the number of atom in twg
i = 11
variable      x0 equal x[${randatomi}]                    # Determine its x-coord
variable      x0 equal x[3131]                    
variable      y0 equal y[${randatomi}]                    # Determine its y-coord
variable      y0 equal y[3131]                    
variable      check0 equal ${check}                       # Count the number of atoms in the simulation
variable      check0 equal 5502                       
variable      b equal ${check}+1                          # The grafted bead id will be one higher after being inserted
variable      b equal 5502+1                          
if            "${twgcount} != $(v_i)" then "jump MDPBB.in loop"
# Otherwise insert the chain directly above the chosen wall atom pointing perpendicular to the wall
create_atoms  1 single ${x0} ${y0} ${z0} mol bs 24987 units box remap yes rotate 0 0 0 1
create_atoms  1 single 20.6362136755866 ${y0} ${z0} mol bs 24987 units box remap yes rotate 0 0 0 1
create_atoms  1 single 20.6362136755866 5.5559036818887 ${z0} mol bs 24987 units box remap yes rotate 0 0 0 1
create_atoms  1 single 20.6362136755866 5.5559036818887 17 mol bs 24987 units box remap yes rotate 0 0 0 1
Created 30 atoms
  create_atoms CPU = 0.00028801 secs
variable      check1 equal ${check}               # Count the new total number of atoms
variable      check1 equal 5532               
# Check that the molecule has indeed been inserted (This check is no longer an issue).
if            "${check1} != ${check0}" then "create_bonds  single/bond 2 ${randatomi} $b" "next i"
create_bonds  single/bond 2 ${randatomi} $b
create_bonds  single/bond 2 3131 $b
create_bonds  single/bond 2 3131 5503
  2 = max # of 1-2 neighbors
  5 = max # of special neighbors
  special bonds CPU = 0.000641108 secs
next i
jump MDPBB.in loop    # End of the loop
variable      randni equal round(random(1,${ntwall},$s))  # Pick a random "top" wall atom
variable      randni equal round(random(1,5202,$s))  
variable      randni equal round(random(1,5202,234897))  
variable      randatomi equal ${randni}                   # This is to obtain an integer number for atom-id
variable      randatomi equal 4780                   
variable      randzi equal z[${randatomi}]                # Determine the z coordinate of the chosen atom
variable      randzi equal z[4780]                
# if the chosen atom is not a surface atom then restart the loop
if            "${randzi} < $(v_wthick - 0.7)" then "jump MDPBB.in loop"
jump MDPBB.in loop
variable      randni equal round(random(1,${ntwall},$s))  # Pick a random "top" wall atom
variable      randni equal round(random(1,5202,$s))  
variable      randni equal round(random(1,5202,234897))  
variable      randatomi equal ${randni}                   # This is to obtain an integer number for atom-id
variable      randatomi equal 3625                   
variable      randzi equal z[${randatomi}]                # Determine the z coordinate of the chosen atom
variable      randzi equal z[3625]                
# if the chosen atom is not a surface atom then restart the loop
if            "${randzi} < $(v_wthick - 0.7)" then "jump MDPBB.in loop"
jump MDPBB.in loop
variable      randni equal round(random(1,${ntwall},$s))  # Pick a random "top" wall atom
variable      randni equal round(random(1,5202,$s))  
variable      randni equal round(random(1,5202,234897))  
variable      randatomi equal ${randni}                   # This is to obtain an integer number for atom-id
variable      randatomi equal 4671                   
variable      randzi equal z[${randatomi}]                # Determine the z coordinate of the chosen atom
variable      randzi equal z[4671]                
# if the chosen atom is not a surface atom then restart the loop
if            "${randzi} < $(v_wthick - 0.7)" then "jump MDPBB.in loop"
jump MDPBB.in loop
variable      randni equal round(random(1,${ntwall},$s))  # Pick a random "top" wall atom
variable      randni equal round(random(1,5202,$s))  
variable      randni equal round(random(1,5202,234897))  
variable      randatomi equal ${randni}                   # This is to obtain an integer number for atom-id
variable      randatomi equal 3060                   
variable      randzi equal z[${randatomi}]                # Determine the z coordinate of the chosen atom
variable      randzi equal z[3060]                
# if the chosen atom is not a surface atom then restart the loop
if            "${randzi} < $(v_wthick - 0.7)" then "jump MDPBB.in loop"
jump MDPBB.in loop
variable      randni equal round(random(1,${ntwall},$s))  # Pick a random "top" wall atom
variable      randni equal round(random(1,5202,$s))  
variable      randni equal round(random(1,5202,234897))  
variable      randatomi equal ${randni}                   # This is to obtain an integer number for atom-id
variable      randatomi equal 4423                   
variable      randzi equal z[${randatomi}]                # Determine the z coordinate of the chosen atom
variable      randzi equal z[4423]                
# if the chosen atom is not a surface atom then restart the loop
if            "${randzi} < $(v_wthick - 0.7)" then "jump MDPBB.in loop"
jump MDPBB.in loop
variable      randni equal round(random(1,${ntwall},$s))  # Pick a random "top" wall atom
variable      randni equal round(random(1,5202,$s))  
variable      randni equal round(random(1,5202,234897))  
variable      randatomi equal ${randni}                   # This is to obtain an integer number for atom-id
variable      randatomi equal 4359                   
variable      randzi equal z[${randatomi}]                # Determine the z coordinate of the chosen atom
variable      randzi equal z[4359]                
# if the chosen atom is not a surface atom then restart the loop
if            "${randzi} < $(v_wthick - 0.7)" then "jump MDPBB.in loop"
set           atom ${randatomi} type 4                    # Set this grafted wall atom as a new type
set           atom 4359 type 4                    
  1 settings made for type
group         twg id ${randatomi}                         # Add this atom to a top-wall-grafted group
group         twg id 4359                         
12 atoms in group twg
variable      twgcount equal count(twg)
print         "twg contains ${twgcount}"
twg contains 12
print         "i = $(v_i)"                                # The index i should always be equal to the number of atom in twg
i = 12
variable      x0 equal x[${randatomi}]                    # Determine its x-coord
variable      x0 equal x[4359]                    
variable      y0 equal y[${randatomi}]                    # Determine its y-coord
variable      y0 equal y[4359]                    
variable      check0 equal ${check}                       # Count the number of atoms in the simulation
variable      check0 equal 5532                       
variable      b equal ${check}+1                          # The grafted bead id will be one higher after being inserted
variable      b equal 5532+1                          
if            "${twgcount} != $(v_i)" then "jump MDPBB.in loop"
# Otherwise insert the chain directly above the chosen wall atom pointing perpendicular to the wall
create_atoms  1 single ${x0} ${y0} ${z0} mol bs 24987 units box remap yes rotate 0 0 0 1
create_atoms  1 single 23.0173152535389 ${y0} ${z0} mol bs 24987 units box remap yes rotate 0 0 0 1
create_atoms  1 single 23.0173152535389 23.811015779523 ${z0} mol bs 24987 units box remap yes rotate 0 0 0 1
create_atoms  1 single 23.0173152535389 23.811015779523 17 mol bs 24987 units box remap yes rotate 0 0 0 1
Created 30 atoms
  create_atoms CPU = 0.000267029 secs
variable      check1 equal ${check}               # Count the new total number of atoms
variable      check1 equal 5562               
# Check that the molecule has indeed been inserted (This check is no longer an issue).
if            "${check1} != ${check0}" then "create_bonds  single/bond 2 ${randatomi} $b" "next i"
create_bonds  single/bond 2 ${randatomi} $b
create_bonds  single/bond 2 4359 $b
create_bonds  single/bond 2 4359 5533
  2 = max # of 1-2 neighbors
  5 = max # of special neighbors
  special bonds CPU = 0.000629902 secs
next i
jump MDPBB.in loop    # End of the loop
variable      randni equal round(random(1,${ntwall},$s))  # Pick a random "top" wall atom
variable      randni equal round(random(1,5202,$s))  
variable      randni equal round(random(1,5202,234897))  
variable      randatomi equal ${randni}                   # This is to obtain an integer number for atom-id
variable      randatomi equal 2163                   
variable      randzi equal z[${randatomi}]                # Determine the z coordinate of the chosen atom
variable      randzi equal z[2163]                
# if the chosen atom is not a surface atom then restart the loop
if            "${randzi} < $(v_wthick - 0.7)" then "jump MDPBB.in loop"
jump MDPBB.in loop
variable      randni equal round(random(1,${ntwall},$s))  # Pick a random "top" wall atom
variable      randni equal round(random(1,5202,$s))  
variable      randni equal round(random(1,5202,234897))  
variable      randatomi equal ${randni}                   # This is to obtain an integer number for atom-id
variable      randatomi equal 5194                   
variable      randzi equal z[${randatomi}]                # Determine the z coordinate of the chosen atom
variable      randzi equal z[5194]                
# if the chosen atom is not a surface atom then restart the loop
if            "${randzi} < $(v_wthick - 0.7)" then "jump MDPBB.in loop"
jump MDPBB.in loop
variable      randni equal round(random(1,${ntwall},$s))  # Pick a random "top" wall atom
variable      randni equal round(random(1,5202,$s))  
variable      randni equal round(random(1,5202,234897))  
variable      randatomi equal ${randni}                   # This is to obtain an integer number for atom-id
variable      randatomi equal 5070                   
variable      randzi equal z[${randatomi}]                # Determine the z coordinate of the chosen atom
variable      randzi equal z[5070]                
# if the chosen atom is not a surface atom then restart the loop
if            "${randzi} < $(v_wthick - 0.7)" then "jump MDPBB.in loop"
set           atom ${randatomi} type 4                    # Set this grafted wall atom as a new type
set           atom 5070 type 4                    
  1 settings made for type
group         twg id ${randatomi}                         # Add this atom to a top-wall-grafted group
group         twg id 5070                         
13 atoms in group twg
variable      twgcount equal count(twg)
print         "twg contains ${twgcount}"
twg contains 13
print         "i = $(v_i)"                                # The index i should always be equal to the number of atom in twg
i = 13
variable      x0 equal x[${randatomi}]                    # Determine its x-coord
variable      x0 equal x[5070]                    
variable      y0 equal y[${randatomi}]                    # Determine its y-coord
variable      y0 equal y[5070]                    
variable      check0 equal ${check}                       # Count the number of atoms in the simulation
variable      check0 equal 5562                       
variable      b equal ${check}+1                          # The grafted bead id will be one higher after being inserted
variable      b equal 5562+1                          
if            "${twgcount} != $(v_i)" then "jump MDPBB.in loop"
# Otherwise insert the chain directly above the chosen wall atom pointing perpendicular to the wall
create_atoms  1 single ${x0} ${y0} ${z0} mol bs 24987 units box remap yes rotate 0 0 0 1
create_atoms  1 single 37.3039247212527 ${y0} ${z0} mol bs 24987 units box remap yes rotate 0 0 0 1
create_atoms  1 single 37.3039247212527 34.9228231433004 ${z0} mol bs 24987 units box remap yes rotate 0 0 0 1
create_atoms  1 single 37.3039247212527 34.9228231433004 17 mol bs 24987 units box remap yes rotate 0 0 0 1
Created 30 atoms
  create_atoms CPU = 0.000289202 secs
variable      check1 equal ${check}               # Count the new total number of atoms
variable      check1 equal 5592               
# Check that the molecule has indeed been inserted (This check is no longer an issue).
if            "${check1} != ${check0}" then "create_bonds  single/bond 2 ${randatomi} $b" "next i"
create_bonds  single/bond 2 ${randatomi} $b
create_bonds  single/bond 2 5070 $b
create_bonds  single/bond 2 5070 5563
  2 = max # of 1-2 neighbors
  5 = max # of special neighbors
  special bonds CPU = 0.000640154 secs
next i
jump MDPBB.in loop    # End of the loop
variable      randni equal round(random(1,${ntwall},$s))  # Pick a random "top" wall atom
variable      randni equal round(random(1,5202,$s))  
variable      randni equal round(random(1,5202,234897))  
variable      randatomi equal ${randni}                   # This is to obtain an integer number for atom-id
variable      randatomi equal 3768                   
variable      randzi equal z[${randatomi}]                # Determine the z coordinate of the chosen atom
variable      randzi equal z[3768]                
# if the chosen atom is not a surface atom then restart the loop
if            "${randzi} < $(v_wthick - 0.7)" then "jump MDPBB.in loop"
set           atom ${randatomi} type 4                    # Set this grafted wall atom as a new type
set           atom 3768 type 4                    
  1 settings made for type
group         twg id ${randatomi}                         # Add this atom to a top-wall-grafted group
group         twg id 3768                         
14 atoms in group twg
variable      twgcount equal count(twg)
print         "twg contains ${twgcount}"
twg contains 14
print         "i = $(v_i)"                                # The index i should always be equal to the number of atom in twg
i = 14
variable      x0 equal x[${randatomi}]                    # Determine its x-coord
variable      x0 equal x[3768]                    
variable      y0 equal y[${randatomi}]                    # Determine its y-coord
variable      y0 equal y[3768]                    
variable      check0 equal ${check}                       # Count the number of atoms in the simulation
variable      check0 equal 5592                       
variable      b equal ${check}+1                          # The grafted bead id will be one higher after being inserted
variable      b equal 5592+1                          
if            "${twgcount} != $(v_i)" then "jump MDPBB.in loop"
# Otherwise insert the chain directly above the chosen wall atom pointing perpendicular to the wall
create_atoms  1 single ${x0} ${y0} ${z0} mol bs 24987 units box remap yes rotate 0 0 0 1
create_atoms  1 single 25.3984168314912 ${y0} ${z0} mol bs 24987 units box remap yes rotate 0 0 0 1
create_atoms  1 single 25.3984168314912 15.0803099936979 ${z0} mol bs 24987 units box remap yes rotate 0 0 0 1
create_atoms  1 single 25.3984168314912 15.0803099936979 17 mol bs 24987 units box remap yes rotate 0 0 0 1
Created 30 atoms
  create_atoms CPU = 0.000268936 secs
variable      check1 equal ${check}               # Count the new total number of atoms
variable      check1 equal 5622               
# Check that the molecule has indeed been inserted (This check is no longer an issue).
if            "${check1} != ${check0}" then "create_bonds  single/bond 2 ${randatomi} $b" "next i"
create_bonds  single/bond 2 ${randatomi} $b
create_bonds  single/bond 2 3768 $b
create_bonds  single/bond 2 3768 5593
  2 = max # of 1-2 neighbors
  5 = max # of special neighbors
  special bonds CPU = 0.000649929 secs
next i
jump MDPBB.in loop    # End of the loop
variable      randni equal round(random(1,${ntwall},$s))  # Pick a random "top" wall atom
variable      randni equal round(random(1,5202,$s))  
variable      randni equal round(random(1,5202,234897))  
variable      randatomi equal ${randni}                   # This is to obtain an integer number for atom-id
variable      randatomi equal 4887                   
variable      randzi equal z[${randatomi}]                # Determine the z coordinate of the chosen atom
variable      randzi equal z[4887]                
# if the chosen atom is not a surface atom then restart the loop
if            "${randzi} < $(v_wthick - 0.7)" then "jump MDPBB.in loop"
jump MDPBB.in loop
variable      randni equal round(random(1,${ntwall},$s))  # Pick a random "top" wall atom
variable      randni equal round(random(1,5202,$s))  
variable      randni equal round(random(1,5202,234897))  
variable      randatomi equal ${randni}                   # This is to obtain an integer number for atom-id
variable      randatomi equal 1228                   
variable      randzi equal z[${randatomi}]                # Determine the z coordinate of the chosen atom
variable      randzi equal z[1228]                
# if the chosen atom is not a surface atom then restart the loop
if            "${randzi} < $(v_wthick - 0.7)" then "jump MDPBB.in loop"
set           atom ${randatomi} type 4                    # Set this grafted wall atom as a new type
set           atom 1228 type 4                    
  1 settings made for type
group         twg id ${randatomi}                         # Add this atom to a top-wall-grafted group
group         twg id 1228                         
15 atoms in group twg
variable      twgcount equal count(twg)
print         "twg contains ${twgcount}"
twg contains 15
print         "i = $(v_i)"                                # The index i should always be equal to the number of atom in twg
i = 15
variable      x0 equal x[${randatomi}]                    # Determine its x-coord
variable      x0 equal x[1228]                    
variable      y0 equal y[${randatomi}]                    # Determine its y-coord
variable      y0 equal y[1228]                    
variable      check0 equal ${check}                       # Count the number of atoms in the simulation
variable      check0 equal 5622                       
variable      b equal ${check}+1                          # The grafted bead id will be one higher after being inserted
variable      b equal 5622+1                          
if            "${twgcount} != $(v_i)" then "jump MDPBB.in loop"
# Otherwise insert the chain directly above the chosen wall atom pointing perpendicular to the wall
create_atoms  1 single ${x0} ${y0} ${z0} mol bs 24987 units box remap yes rotate 0 0 0 1
create_atoms  1 single 11.1118073637774 ${y0} ${z0} mol bs 24987 units box remap yes rotate 0 0 0 1
create_atoms  1 single 11.1118073637774 16.6677110456661 ${z0} mol bs 24987 units box remap yes rotate 0 0 0 1
create_atoms  1 single 11.1118073637774 16.6677110456661 17 mol bs 24987 units box remap yes rotate 0 0 0 1
Created 30 atoms
  create_atoms CPU = 0.00121784 secs
variable      check1 equal ${check}               # Count the new total number of atoms
variable      check1 equal 5652               
# Check that the molecule has indeed been inserted (This check is no longer an issue).
if            "${check1} != ${check0}" then "create_bonds  single/bond 2 ${randatomi} $b" "next i"
create_bonds  single/bond 2 ${randatomi} $b
create_bonds  single/bond 2 1228 $b
create_bonds  single/bond 2 1228 5623
  2 = max # of 1-2 neighbors
  5 = max # of special neighbors
  special bonds CPU = 0.000633001 secs
next i
jump MDPBB.in loop    # End of the loop
variable      randni equal round(random(1,${ntwall},$s))  # Pick a random "top" wall atom
variable      randni equal round(random(1,5202,$s))  
variable      randni equal round(random(1,5202,234897))  
variable      randatomi equal ${randni}                   # This is to obtain an integer number for atom-id
variable      randatomi equal 4852                   
variable      randzi equal z[${randatomi}]                # Determine the z coordinate of the chosen atom
variable      randzi equal z[4852]                
# if the chosen atom is not a surface atom then restart the loop
if            "${randzi} < $(v_wthick - 0.7)" then "jump MDPBB.in loop"
jump MDPBB.in loop
variable      randni equal round(random(1,${ntwall},$s))  # Pick a random "top" wall atom
variable      randni equal round(random(1,5202,$s))  
variable      randni equal round(random(1,5202,234897))  
variable      randatomi equal ${randni}                   # This is to obtain an integer number for atom-id
variable      randatomi equal 680                   
variable      randzi equal z[${randatomi}]                # Determine the z coordinate of the chosen atom
variable      randzi equal z[680]                
# if the chosen atom is not a surface atom then restart the loop
if            "${randzi} < $(v_wthick - 0.7)" then "jump MDPBB.in loop"
jump MDPBB.in loop
variable      randni equal round(random(1,${ntwall},$s))  # Pick a random "top" wall atom
variable      randni equal round(random(1,5202,$s))  
variable      randni equal round(random(1,5202,234897))  
variable      randatomi equal ${randni}                   # This is to obtain an integer number for atom-id
variable      randatomi equal 4423                   
variable      randzi equal z[${randatomi}]                # Determine the z coordinate of the chosen atom
variable      randzi equal z[4423]                
# if the chosen atom is not a surface atom then restart the loop
if            "${randzi} < $(v_wthick - 0.7)" then "jump MDPBB.in loop"
jump MDPBB.in loop
variable      randni equal round(random(1,${ntwall},$s))  # Pick a random "top" wall atom
variable      randni equal round(random(1,5202,$s))  
variable      randni equal round(random(1,5202,234897))  
variable      randatomi equal ${randni}                   # This is to obtain an integer number for atom-id
variable      randatomi equal 4859                   
variable      randzi equal z[${randatomi}]                # Determine the z coordinate of the chosen atom
variable      randzi equal z[4859]                
# if the chosen atom is not a surface atom then restart the loop
if            "${randzi} < $(v_wthick - 0.7)" then "jump MDPBB.in loop"
jump MDPBB.in loop
variable      randni equal round(random(1,${ntwall},$s))  # Pick a random "top" wall atom
variable      randni equal round(random(1,5202,$s))  
variable      randni equal round(random(1,5202,234897))  
variable      randatomi equal ${randni}                   # This is to obtain an integer number for atom-id
variable      randatomi equal 1781                   
variable      randzi equal z[${randatomi}]                # Determine the z coordinate of the chosen atom
variable      randzi equal z[1781]                
# if the chosen atom is not a surface atom then restart the loop
if            "${randzi} < $(v_wthick - 0.7)" then "jump MDPBB.in loop"
jump MDPBB.in loop
variable      randni equal round(random(1,${ntwall},$s))  # Pick a random "top" wall atom
variable      randni equal round(random(1,5202,$s))  
variable      randni equal round(random(1,5202,234897))  
variable      randatomi equal ${randni}                   # This is to obtain an integer number for atom-id
variable      randatomi equal 1354                   
variable      randzi equal z[${randatomi}]                # Determine the z coordinate of the chosen atom
variable      randzi equal z[1354]                
# if the chosen atom is not a surface atom then restart the loop
if            "${randzi} < $(v_wthick - 0.7)" then "jump MDPBB.in loop"
jump MDPBB.in loop
variable      randni equal round(random(1,${ntwall},$s))  # Pick a random "top" wall atom
variable      randni equal round(random(1,5202,$s))  
variable      randni equal round(random(1,5202,234897))  
variable      randatomi equal ${randni}                   # This is to obtain an integer number for atom-id
variable      randatomi equal 3454                   
variable      randzi equal z[${randatomi}]                # Determine the z coordinate of the chosen atom
variable      randzi equal z[3454]                
# if the chosen atom is not a surface atom then restart the loop
if            "${randzi} < $(v_wthick - 0.7)" then "jump MDPBB.in loop"
jump MDPBB.in loop
variable      randni equal round(random(1,${ntwall},$s))  # Pick a random "top" wall atom
variable      randni equal round(random(1,5202,$s))  
variable      randni equal round(random(1,5202,234897))  
variable      randatomi equal ${randni}                   # This is to obtain an integer number for atom-id
variable      randatomi equal 2425                   
variable      randzi equal z[${randatomi}]                # Determine the z coordinate of the chosen atom
variable      randzi equal z[2425]                
# if the chosen atom is not a surface atom then restart the loop
if            "${randzi} < $(v_wthick - 0.7)" then "jump MDPBB.in loop"
set           atom ${randatomi} type 4                    # Set this grafted wall atom as a new type
set           atom 2425 type 4                    
  1 settings made for type
group         twg id ${randatomi}                         # Add this atom to a top-wall-grafted group
group         twg id 2425                         
16 atoms in group twg
variable      twgcount equal count(twg)
print         "twg contains ${twgcount}"
twg contains 16
print         "i = $(v_i)"                                # The index i should always be equal to the number of atom in twg
i = 16
variable      x0 equal x[${randatomi}]                    # Determine its x-coord
variable      x0 equal x[2425]                    
variable      y0 equal y[${randatomi}]                    # Determine its y-coord
variable      y0 equal y[2425]                    
variable      check0 equal ${check}                       # Count the number of atoms in the simulation
variable      check0 equal 5652                       
variable      b equal ${check}+1                          # The grafted bead id will be one higher after being inserted
variable      b equal 5652+1                          
if            "${twgcount} != $(v_i)" then "jump MDPBB.in loop"
# Otherwise insert the chain directly above the chosen wall atom pointing perpendicular to the wall
create_atoms  1 single ${x0} ${y0} ${z0} mol bs 24987 units box remap yes rotate 0 0 0 1
create_atoms  1 single 2.3811015779523 ${y0} ${z0} mol bs 24987 units box remap yes rotate 0 0 0 1
create_atoms  1 single 2.3811015779523 33.3354220913322 ${z0} mol bs 24987 units box remap yes rotate 0 0 0 1
create_atoms  1 single 2.3811015779523 33.3354220913322 17 mol bs 24987 units box remap yes rotate 0 0 0 1
Created 30 atoms
  create_atoms CPU = 0.000274897 secs
variable      check1 equal ${check}               # Count the new total number of atoms
variable      check1 equal 5682               
# Check that the molecule has indeed been inserted (This check is no longer an issue).
if            "${check1} != ${check0}" then "create_bonds  single/bond 2 ${randatomi} $b" "next i"
create_bonds  single/bond 2 ${randatomi} $b
create_bonds  single/bond 2 2425 $b
create_bonds  single/bond 2 2425 5653
  2 = max # of 1-2 neighbors
  5 = max # of special neighbors
  special bonds CPU = 0.00064683 secs
next i
jump MDPBB.in loop    # End of the loop
variable      randni equal round(random(1,${ntwall},$s))  # Pick a random "top" wall atom
variable      randni equal round(random(1,5202,$s))  
variable      randni equal round(random(1,5202,234897))  
variable      randatomi equal ${randni}                   # This is to obtain an integer number for atom-id
variable      randatomi equal 752                   
variable      randzi equal z[${randatomi}]                # Determine the z coordinate of the chosen atom
variable      randzi equal z[752]                
# if the chosen atom is not a surface atom then restart the loop
if            "${randzi} < $(v_wthick - 0.7)" then "jump MDPBB.in loop"
jump MDPBB.in loop
variable      randni equal round(random(1,${ntwall},$s))  # Pick a random "top" wall atom
variable      randni equal round(random(1,5202,$s))  
variable      randni equal round(random(1,5202,234897))  
variable      randatomi equal ${randni}                   # This is to obtain an integer number for atom-id
variable      randatomi equal 4790                   
variable      randzi equal z[${randatomi}]                # Determine the z coordinate of the chosen atom
variable      randzi equal z[4790]                
# if the chosen atom is not a surface atom then restart the loop
if            "${randzi} < $(v_wthick - 0.7)" then "jump MDPBB.in loop"
jump MDPBB.in loop
variable      randni equal round(random(1,${ntwall},$s))  # Pick a random "top" wall atom
variable      randni equal round(random(1,5202,$s))  
variable      randni equal round(random(1,5202,234897))  
variable      randatomi equal ${randni}                   # This is to obtain an integer number for atom-id
variable      randatomi equal 4976                   
variable      randzi equal z[${randatomi}]                # Determine the z coordinate of the chosen atom
variable      randzi equal z[4976]                
# if the chosen atom is not a surface atom then restart the loop
if            "${randzi} < $(v_wthick - 0.7)" then "jump MDPBB.in loop"
jump MDPBB.in loop
variable      randni equal round(random(1,${ntwall},$s))  # Pick a random "top" wall atom
variable      randni equal round(random(1,5202,$s))  
variable      randni equal round(random(1,5202,234897))  
variable      randatomi equal ${randni}                   # This is to obtain an integer number for atom-id
variable      randatomi equal 4704                   
variable      randzi equal z[${randatomi}]                # Determine the z coordinate of the chosen atom
variable      randzi equal z[4704]                
# if the chosen atom is not a surface atom then restart the loop
if            "${randzi} < $(v_wthick - 0.7)" then "jump MDPBB.in loop"
jump MDPBB.in loop
variable      randni equal round(random(1,${ntwall},$s))  # Pick a random "top" wall atom
variable      randni equal round(random(1,5202,$s))  
variable      randni equal round(random(1,5202,234897))  
variable      randatomi equal ${randni}                   # This is to obtain an integer number for atom-id
variable      randatomi equal 4145                   
variable      randzi equal z[${randatomi}]                # Determine the z coordinate of the chosen atom
variable      randzi equal z[4145]                
# if the chosen atom is not a surface atom then restart the loop
if            "${randzi} < $(v_wthick - 0.7)" then "jump MDPBB.in loop"
jump MDPBB.in loop
variable      randni equal round(random(1,${ntwall},$s))  # Pick a random "top" wall atom
variable      randni equal round(random(1,5202,$s))  
variable      randni equal round(random(1,5202,234897))  
variable      randatomi equal ${randni}                   # This is to obtain an integer number for atom-id
variable      randatomi equal 2282                   
variable      randzi equal z[${randatomi}]                # Determine the z coordinate of the chosen atom
variable      randzi equal z[2282]                
# if the chosen atom is not a surface atom then restart the loop
if            "${randzi} < $(v_wthick - 0.7)" then "jump MDPBB.in loop"
jump MDPBB.in loop
variable      randni equal round(random(1,${ntwall},$s))  # Pick a random "top" wall atom
variable      randni equal round(random(1,5202,$s))  
variable      randni equal round(random(1,5202,234897))  
variable      randatomi equal ${randni}                   # This is to obtain an integer number for atom-id
variable      randatomi equal 1931                   
variable      randzi equal z[${randatomi}]                # Determine the z coordinate of the chosen atom
variable      randzi equal z[1931]                
# if the chosen atom is not a surface atom then restart the loop
if            "${randzi} < $(v_wthick - 0.7)" then "jump MDPBB.in loop"
set           atom ${randatomi} type 4                    # Set this grafted wall atom as a new type
set           atom 1931 type 4                    
  1 settings made for type
group         twg id ${randatomi}                         # Add this atom to a top-wall-grafted group
group         twg id 1931                         
17 atoms in group twg
variable      twgcount equal count(twg)
print         "twg contains ${twgcount}"
twg contains 17
print         "i = $(v_i)"                                # The index i should always be equal to the number of atom in twg
i = 17
variable      x0 equal x[${randatomi}]                    # Determine its x-coord
variable      x0 equal x[1931]                    
variable      y0 equal y[${randatomi}]                    # Determine its y-coord
variable      y0 equal y[1931]                    
variable      check0 equal ${check}                       # Count the number of atoms in the simulation
[...]
 4957000    3.9137115     1.420951    2.4927605  -0.16032534   0.94736299    1.2520304   0.80690816   -1.2298232            1  -0.16833569  -0.45518251  -0.45171658   0.40189203 -0.0013649968  0.073285394  0.010468486  -0.34645451  -0.29583057   0.62831628         0.05    1.9877249          0.5   0.10471938    4.7746654     2.447735    29.454585 -0.00042683153  -0.18397466 -0.0078460706   0.21460408   0.24537237   0.43491509 
 4958000    3.9150513    1.4208535    2.4941978  -0.15280938   0.94729796     1.269475   0.79876576   -1.2298232            1  -0.19988374  -0.46668604  -0.47596859   0.34300342  0.017302874  0.028536099  0.038873693  -0.37620519  -0.32915501   0.62662723         0.05    1.9745795          0.5   0.10443787    4.7875353    2.4392648    29.454585 -0.0033394847  -0.19379275 -0.013706553   0.22597211   -1.0168732    3.0475881 
 4959000    3.9191928     1.416668    2.5025248  -0.15527532   0.94450747    1.2799455   0.78985759   -1.2298232            1  -0.25212207  -0.53876688  -0.52881986   0.31122052 0.0040509543 -0.024756094  0.039724103  -0.42647711  -0.38245956   0.62223167         0.05    1.9767039          0.5   0.10370528    4.8213554    2.4451929    29.454585 -0.0082422269  -0.19262587 -0.0073594316   0.14491543  -0.18341283    1.0315578 
 4960000     3.922878    1.4299789    2.4928991    -0.156464   0.95338197    1.2630763   0.81060875   -1.2298232            1  -0.29350193  -0.56624633  -0.54345452   0.22919507 0.0024843832 -0.044580323  0.017412659  -0.47243763  -0.42212162   0.62297838         0.05    1.9518675          0.5   0.10382973    4.8155764    2.4461155    29.454585 0.0016992932  -0.21857795 -0.016641759     0.200588  -0.58036043   -0.9263015 
 4961000     3.916172    1.4171153    2.4990567  -0.15751282   0.94480564     1.256444    0.8011348   -1.2298232            1  -0.13683852   -0.4138047  -0.44183099   0.44512014 -0.0083094068 -0.098473558 -0.0032710415  -0.31368292  -0.26478284   0.62702941         0.05    1.9470138          0.5    0.1045049    4.7844646    2.4446639    29.454585 -0.0068468275   -0.1726046 -0.0099994457   0.17593249   0.29944134    1.2559968 
 4962000    3.9097234    1.4112893    2.4984342  -0.15811539   0.94092141    1.2573153   0.79505641   -1.2298232            1  -0.29744774  -0.56689668  -0.53812914   0.21268259 -0.0059614818  -0.10337746 -0.030237563  -0.47295039  -0.42548079   0.62549502         0.05    1.9456584          0.5   0.10424917    4.7962013    2.4482841    29.454585 -0.003874465  -0.18535117 0.0035118669   0.16157161   0.14466308    1.9027716 
 4963000    3.9169673    1.4196999    2.4972674  -0.15966333   0.94652883    1.2475758   0.80774409   -1.2298232            1  -0.30154417  -0.57275165  -0.55633276   0.22445189   0.00534843  -0.13366995 -0.028600947  -0.47984752  -0.42858543   0.62390171         0.05    1.9654574          0.5   0.10398362    4.8084497    2.4381595    29.454585 0.0011887347  -0.18921006 -0.0018019953   0.18760072   0.64698129  -0.99962967 
 4964000    3.9078322    1.4184492     2.489383  -0.16127077     0.945695    1.2850508   0.78923795   -1.2298232            1  -0.30705731   -0.6070652  -0.55316326   0.23905654  0.014983099  -0.15326282  0.013734795  -0.48127557  -0.43791467   0.62669687         0.05    1.9819592          0.5   0.10444948    4.7870033     2.438203    29.454585 -0.0096432638  -0.21658158 -0.011075748   0.20977065    2.3220131    1.1392815 
 4965000    3.9045991    1.4096224    2.4949766  -0.15148428    0.9398101    1.2660472   0.78940426   -1.2298232            1  -0.21778099  -0.47813715  -0.48323962    0.3080338 -0.00055147301 -0.063214341  0.028639665  -0.39203596   -0.3467032   0.62104581         0.05    1.9564635          0.5   0.10350764    4.8305615    2.4469715    29.454585 -0.011789907  -0.17557983 -0.0020934248   0.18460438   0.78096955 -0.054795412 
 4966000    3.8927212    1.4013887    2.4913325  -0.15546152   0.93432061    1.2523984   0.78767819   -1.2298232            1  -0.20781197  -0.49057929  -0.47343187   0.34057524 0.0092444896 -0.091745122  0.010848894  -0.38168593  -0.33534433   0.62748685         0.05    1.9436526          0.5   0.10458114    4.7809767    2.4418278    29.454585 -0.0071238137  -0.18864402 -0.013184152   0.20691999    1.6081687   0.62981774 
 4967000    3.9059808    1.4168343    2.4891465   -0.1542867   0.94461833    1.2650268   0.79690174   -1.2298232            1  -0.10169314  -0.40655137  -0.38903362   0.49050556 0.0030726743 -0.043974448 -0.015648621  -0.27760312  -0.23051145   0.63102267         0.05    1.9678271          0.5   0.10517045    4.7541873     2.451021    29.454585 -0.0013964377  -0.17931337 -0.0079063432   0.19336545     0.308572    1.2411204 
 4968000    3.8974295    1.4083352    2.4890942  -0.15817704   0.93895191    1.2600435   0.79091964   -1.2298232            1  -0.19167751  -0.49252414  -0.44567738   0.36316897 0.0068405106  -0.10837359 -0.028940039  -0.36626699  -0.31998837   0.62205496         0.05    1.9842265          0.5   0.10367583     4.822725    2.4408971    29.454585 0.0064330939  -0.19503995   0.00932821   0.20427616    1.0960689   0.64284795 
 4969000    3.9131836    1.4226318    2.4905518  -0.15782858   0.94848362     1.282193   0.79463159   -1.2298232            1 -0.070188096  -0.37751828  -0.38783441   0.55478841 0.0048818014 -0.038285294 -0.041711719  -0.24559696  -0.20075444    0.6221389         0.05    1.9933091          0.5   0.10368982    4.8220743     2.434078    29.454585 0.0031638887  -0.18378489 -0.0071871612   0.18444828   0.54985775    2.9190117 
 4970000     3.929689     1.420825     2.508864  -0.15614852     0.947279    1.2684081   0.79923024   -1.2298232            1  -0.19875151  -0.48558647  -0.46926845   0.35860039  0.007348514  -0.14326289 -0.038805789  -0.37517549  -0.32791414   0.62386537         0.05    1.9798015          0.5   0.10397756    4.8087298    2.4526957    29.454585 0.0023701219  -0.18857978 0.0044000482   0.17944458  -0.50563624    1.0654769 
 4971000    3.9118704    1.4245885    2.4872819  -0.15901803    0.9497881    1.2808329   0.79716539   -1.2298232            1  -0.32056995  -0.59813199  -0.55456232   0.19098446  0.015142982 -0.027637872 0.0066879049  -0.49653814   -0.4509978   0.62539467         0.05      1.97349          0.5   0.10423245    4.7969708    2.4475798    29.454585 -0.0087757471  -0.18040761 -0.017892016    0.1854012  -0.17150773   0.50146154 
 4972000    3.9193953    1.4210667    2.4983285   -0.1613889   0.94744014    1.2717258   0.79793525   -1.2298232            1  -0.21229142  -0.51514809  -0.46843426   0.34670808 -0.0026519316 -0.026930304 0.0079038617  -0.38842954  -0.34179189   0.62688869         0.05    1.9760974          0.5   0.10448145    4.7855386    2.4555922    29.454585 -0.012781715  -0.19796841 -0.0083048282   0.17203752   -1.4512959     2.143231 
 4973000    3.9318548    1.4280722    2.5037826  -0.14913551   0.95211074    1.2705553   0.80530085   -1.2298232            1 -0.092442163  -0.42499918  -0.42177621    0.5694489 -0.015381354 -0.00050138084  0.037221816  -0.27020619  -0.22182344   0.61947993         0.05    1.9926667          0.5   0.10324666    4.8427719    2.4443617    29.454585 -0.014668078  -0.19694322 0.0060959764   0.21331284   -0.4299726    1.7691475 
 4974000    3.9332592    1.4143542     2.518905  -0.14946059   0.94296479    1.2611128   0.79629082   -1.2298232            1   -0.2162769  -0.51415035  -0.49896817   0.36428781 -0.0055793175  0.058324883 -0.0051573429  -0.39205203  -0.34469665   0.62071527         0.05    1.9656747          0.5   0.10345254    4.8331339    2.4535728    29.454585 0.0030921414   -0.2193273 -0.00094067031   0.21095133   0.38346019 -0.099331389 
 4975000    3.9322068    1.4263234    2.5058834  -0.15147945   0.95094482     1.288428   0.79535214   -1.2298232            1  -0.26071633  -0.55072231  -0.52448595   0.29305928 0.0066228414 0.0016109725 -0.0089740646  -0.43628425  -0.39191759    0.6218741         0.05    1.9808974          0.5   0.10364568    4.8241276    2.4428218    29.454585 -0.011132774  -0.18987708 -0.0066740048   0.16112879  -0.46218373    1.8952717 
 4976000    3.9082109    1.4257138    2.4824971  -0.15868328   0.95053836    1.2798462     0.798717   -1.2298232            1  -0.23014993  -0.53513661  -0.51962212   0.36430893 0.0090307719  0.061231133  0.032549891  -0.40646062  -0.36047731   0.62537325         0.05    1.9728862          0.5   0.10422887    4.7971352    2.4539533    29.454585 -0.005784698  -0.24239391 0.0053940798   0.19495756   -1.7539763    2.2698933 
 4977000     3.937124    1.4353164    2.5018076  -0.15277039   0.95694053    1.2762519   0.80973123   -1.2298232            1  -0.24991083  -0.52480277  -0.52590103    0.3009713 -0.0009468109 -0.010497879  0.018288411  -0.42865283   -0.3798722   0.61708762         0.05    1.9832451          0.5   0.10284794    4.8615463    2.4394833    29.454585 -0.010715336  -0.21406342 -0.0082829816   0.18564308  -0.56087621     1.236628 
 4978000    3.9424559    1.4336411    2.5088148  -0.15321157   0.95582359    1.2684718   0.81168796   -1.2298232            1  -0.19229138  -0.50161309  -0.45959784   0.38433678  0.005047944  0.073480928  0.018562268  -0.37146531   -0.3214605   0.62073114         0.05    1.9806047          0.5   0.10345519    4.8330103    2.4436644    29.454585 -0.0044841272  -0.21477329 0.0030715058   0.19751999  -0.53369179    1.9909447 
 4979000    3.8999671    1.4111638    2.4888033  -0.15914516   0.94083773     1.270046   0.78906137   -1.2298232            1  -0.28615226  -0.58685586   -0.5369573   0.26535637 -0.017273825  0.070669262  0.011409994  -0.46033154  -0.41548168    0.6284115         0.05    1.9835445          0.5   0.10473525    4.7739419    2.4583307    29.454585 -0.0018668005  -0.20469167   0.01516473   0.20762602    1.7920181   0.96942708 
 4980000    3.9128866     1.398807    2.5140796  -0.15837076   0.93259935    1.2230261   0.79871245   -1.2298232            1  -0.22401966  -0.50756417  -0.47059242   0.30609762 -0.0052142059   0.02334887  0.010163275  -0.40032934  -0.34856102   0.63078788         0.05    1.9809258          0.5   0.10513131     4.755957    2.4396296    29.454585 0.0023755452  -0.20275981 -0.0067044802   0.19405897   0.45769004    2.4215101 
 4981000    3.9180144    1.4028291    2.5151854  -0.15398658   0.93528089    1.2311651    0.7988767   -1.2298232            1  -0.15091724  -0.48452284   -0.4407873   0.47255842 -0.011162706 -0.00042371674 -0.080829398  -0.32726318  -0.27628739   0.62561665         0.05    1.9760983          0.5   0.10426944    4.7952688    2.4419947    29.454585 0.0036210773  -0.22515788 0.0021788998   0.21934113 -0.095765978  -0.11529588 
 4982000     3.907762    1.4147003    2.4930618   -0.1585039   0.94319556    1.2541314   0.79984867   -1.2298232            1  -0.38539788  -0.62588584  -0.59178253  0.061474739 0.0096902411 -0.013853302 -0.0031202861  -0.56195837   -0.5131067   0.62375176         0.05    1.9655905          0.5   0.10395863    4.8096056    2.4457425    29.454585 -0.0022141993  -0.17705284 -0.0027430402    0.1547263  -0.14898473   -1.8236322 
 4983000     3.927527    1.4221782    2.5053487  -0.16034798   0.94818119    1.2615358   0.80371894   -1.2298232            1   -0.2483975  -0.51769408  -0.50966511   0.28216669 -9.5086395e-05  0.013816982   0.01066236  -0.42581233  -0.37686032   0.62634092         0.05    1.9636012          0.5   0.10439015    4.7897238    2.4530058    29.454585 -0.0070292914  -0.19018196 0.0049617006   0.18969259  -0.38380081  0.079799228 
 4984000    3.9102006    1.4206746    2.4895259  -0.15877449   0.94717871    1.2578381   0.80395969   -1.2298232            1  -0.17084898  -0.44553568  -0.49732471   0.43031346 0.0042329065  0.077153188  0.025194091  -0.34831695  -0.29893526    0.6291445         0.05    1.9812555          0.5   0.10485742    4.7683799    2.4446994    29.454585 -0.0029417345  -0.18046623 -0.020121881   0.20354865 -0.073448244    0.9634544 
 4985000    3.8965575    1.4118639    2.4846936  -0.15842281   0.94130453    1.2480496    0.7998907   -1.2298232            1  -0.21783244  -0.49589424  -0.49441214   0.33680907 0.0018191572  0.092090565 -0.0022290365  -0.39440221  -0.34492194   0.62146644         0.05    1.9922977          0.5   0.10357774     4.827292    2.4437584    29.454585 -0.0045766836  -0.20599402 -0.0042649928   0.18305913   -0.4441132   0.59273495 
 4986000    3.9085308    1.4215891    2.4869417  -0.15650104   0.94778841    1.2685973   0.79988743   -1.2298232            1  -0.23509975   -0.5501696  -0.49801816   0.34288853 -0.0016696492 -0.027553839 -0.011599739   -0.4116688  -0.36428163   0.62131073         0.05    1.9753677          0.5   0.10355179    4.8285018    2.4423055    29.454585 -0.0062797321  -0.18955278 -0.00092781496   0.19577185  -0.66695101    2.2956556 
 4987000    3.9101654    1.4123869    2.4977785  -0.15623978   0.94165321    1.2440501   0.80224523   -1.2298232            1  -0.21557048  -0.50191986  -0.50177596   0.35698437 -0.0029800538 0.0056886859 -0.036246257     -0.39266  -0.34225272   0.62793448         0.05    1.9760198          0.5   0.10465575    4.7775685    2.4497558    29.454585 0.0009982757  -0.18963726 -0.015241196   0.21611253  -0.25354614   0.20559529 
 4988000    3.9015602    1.4061655    2.4953947  -0.15472788   0.93750532    1.2472686   0.79469878   -1.2298232            1  -0.15366933  -0.44254867  -0.47947868   0.46101936 0.0030334366   0.02475158  -0.02641494  -0.32909303  -0.28067931   0.63093789         0.05    1.9697917          0.5   0.10515632    4.7548262    2.4481233    29.454585 -0.0027844045   -0.2175337 -0.012725823   0.20792491  0.050058742    1.8256887 
 4989000    3.9127944    1.4066531    2.5061413  -0.15549088   0.93783042    1.2371969   0.79982004   -1.2298232            1  -0.28343229  -0.54593273  -0.54038627   0.23602213  0.014020317 0.0068302447 -0.015928774  -0.45998647  -0.40941667   0.62129593         0.05    1.9947875          0.5   0.10354932    4.8286168    2.4431732    29.454585 -0.001606511   -0.1735466  0.014558419     0.226537    1.5240717   0.48430009 
 4990000    3.9015815    1.4224001    2.4791814  -0.16313018    0.9483291    1.2596368   0.80481114   -1.2298232            1  -0.22663437  -0.49699063  -0.52123892   0.33832643 -0.013103171  -0.15114095  0.037028155   -0.4042903  -0.35490382   0.62156753         0.05    1.9793999          0.5   0.10359459    4.8265069    2.4512013    29.454585 -0.007722827  -0.19039052 -0.0026410093   0.18681734   0.58570929    1.3943774 
 4991000     3.889907    1.3999737    2.4899333  -0.16147749   0.93337717    1.2559229   0.78467356   -1.2298232            1  -0.25981037  -0.52109875  -0.50107384   0.24274147 0.0077178045  -0.12793283 -0.022295976  -0.43302108  -0.38770163   0.62370887         0.05    1.9839919          0.5   0.10395148    4.8099364    2.4470006    29.454585 -0.0044586921  -0.17880007 -0.0076472309   0.18895084  -0.12400053   -1.0665672 
 4992000    3.9094461    1.4174129    2.4920332    -0.153341   0.94500408     1.259231   0.80013917   -1.2298232            1  -0.20649467  -0.50979934  -0.48450369   0.37481902 0.0097938939 -0.067302455  0.034666727  -0.38311929  -0.33472278   0.62412257         0.05    1.9871346          0.5   0.10402043    4.8067481    2.4546757    29.454585 -0.00055323719  -0.16391868 0.00091615986   0.18741112  -0.60617745    1.7020799 
 4993000    3.9062368    1.4205374    2.4856994  -0.15907427   0.94708725    1.2551454   0.80506821   -1.2298232            1  -0.25609381  -0.55727926  -0.49195859   0.28095642 -0.017543762 -0.058693485 0.0074982487  -0.43380648  -0.38390589   0.62730877         0.05    1.9689954          0.5   0.10455146    4.7823339    2.4572311    29.454585 -0.0041496372  -0.20901032 -0.011483122   0.20366778  -0.45422806   -1.0701437 
 4994000    3.9004786    1.4112217    2.4892569  -0.16023064   0.94087638    1.2500209   0.79835561   -1.2298232            1  -0.13191343  -0.43767173   -0.4148017   0.45673314 -0.0092024561 0.0029931914  0.026268979  -0.30814435  -0.25920368   0.62435134         0.05    1.9808794          0.5   0.10405856    4.8049869    2.4487256    29.454585 0.0016797877  -0.18398557 -0.012091396   0.16348815    1.4379677    2.4450446 
 4995000    3.9192091    1.4140308    2.5051784  -0.15726243    0.9427492    1.2422976   0.80465537   -1.2298232            1  -0.20457831  -0.51574682  -0.50276402   0.40477591  0.001446199 -0.084305699 -0.027412412  -0.38219984  -0.33108209   0.62584628         0.05    1.9736149          0.5   0.10430771    4.7935093    2.4478813    29.454585 0.0061672444  -0.18450934 -0.0010717314   0.21513215   0.37442955   0.18819329 
 4996000    3.9080257    1.4195552    2.4884705  -0.15920622   0.94643237    1.2522825   0.80543186   -1.2298232            1  -0.17487683  -0.44837905  -0.49708816   0.42083672 0.0017359975 -0.041446493  0.057794041  -0.35266977  -0.30239738   0.62728876         0.05    1.9526911          0.5   0.10454813    4.7824865     2.453943    29.454585 -0.0032964787  -0.20167055 -0.0063938366   0.19918747    0.2091996    1.2978846 
 4997000    3.8997622    1.4119096    2.4878526  -0.16125748   0.94133496    1.2388992   0.80415632   -1.2298232            1  -0.30478216  -0.56749678  -0.59937364   0.25252394 -0.0046120452  0.018941396 -0.0014139795  -0.48229354  -0.43093988   0.63192639         0.05    1.9770506          0.5   0.10532106    4.7473884    2.4599073    29.454585 -0.0039634377  -0.20990876 -0.0090902896   0.22371582    1.2078859   -3.1320442 
 4998000    3.9164569    1.4032243    2.5132326  -0.15688399   0.93554439    1.2454208   0.79268546   -1.2298232            1  -0.38082816  -0.64336599  -0.61151208   0.11239359  0.012136669 -0.044556608 -0.010300003  -0.55580743  -0.50764998   0.62890036         0.05    1.9727709          0.5   0.10481673     4.770231    2.4569536    29.454585 -0.0025952029  -0.17090703 0.0042766823   0.21008057    1.9647849    2.2394766 
 4999000    3.8777685    1.4006691    2.4770995  -0.16421774   0.93384079    1.2310125   0.79684252   -1.2298232            1  -0.13951241  -0.43292912  -0.42449564   0.43888754 -0.014175191 -0.022229011  0.010788822  -0.31540932  -0.26486702   0.62923513         0.05    1.9252526          0.5   0.10487252    4.7676931    2.4395045    29.454585 -0.0025367263  -0.19838915 -0.0088417874   0.19475333    1.7070781    2.3421052 
 5000000    3.8751155    1.3921981    2.4829173  -0.15841967   0.92819314    1.2173302   0.79490078   -1.2298232            1  -0.25246192  -0.55585938  -0.51132903   0.30980263 -0.0033265487 -0.059599876 -0.037017869  -0.42793021  -0.37642326   0.62732013         0.05    1.9684378          0.5   0.10455335    4.7822473     2.440106    29.454585  0.010431475  -0.19741641 -0.0027932729   0.21574509   0.52573891   0.19720939 
Loop time of 3286.4 on 32 procs for 4000000 steps with 15204 atoms

Performance: 525803.459 tau/day, 1217.138 timesteps/s
100.0% CPU use with 32 MPI tasks x no OpenMP threads

MPI task timing breakdown:
Section |  min time  |  avg time  |  max time  |%varavg| %total
---------------------------------------------------------------
Pair    | 0.46668    | 79.999     | 320.76     |1368.2 |  2.43
Bond    | 1.208      | 266.74     | 634.42     |1670.5 |  8.12
Neigh   | 838.76     | 854.89     | 876.7      |  50.0 | 26.01
Comm    | 76.842     | 312.71     | 798.7      |1569.0 |  9.52
Output  | 3.8028     | 4.0926     | 12.973     |  78.8 |  0.12
Modify  | 910.93     | 1487.4     | 1990.5     |1307.6 | 45.26
Other   |            | 280.6      |            |       |  8.54

Nlocal:    475.125 ave 1473 max 0 min
Histogram: 16 0 0 8 0 0 0 0 0 8
Nghost:    389.125 ave 970 max 0 min
Histogram: 16 0 0 0 0 1 4 3 1 7
Neighs:    635.594 ave 2840 max 0 min
Histogram: 23 1 0 0 0 0 0 3 3 2

Total # of neighbors = 20339
Ave neighs/atom = 1.33774
Ave special neighs/atom = 7.44541
Neighbor list builds = 621346
Dangerous builds = 0
