9376
Atoms. Timestep: 200000
1 25 3.55271e-15 10.6006
1 25.7937 29.2063 10.6006
1 25.8187 29.9233 9.76513
1 25.0589 29.159 9.75739
1 26.5874 3.55271e-15 10.6006
1 27.3811 29.2063 10.6006
1 27.4073 29.9135 9.75816
1 26.5952 29.1817 9.771
1 28.1748 3.55271e-15 10.6006
1 28.9685 29.2063 10.6006
1 28.9938 29.9444 9.77595
1 28.1986 29.1752 9.80249
1 29.7622 3.55271e-15 10.6006
1 0.555904 29.2063 10.6006
1 0.58729 29.9297 9.77187
1 29.7542 29.1876 9.80571
1 1.3496 3.55271e-15 10.6006
1 2.1433 29.2063 10.6006
1 2.14378 29.9351 9.77621
1 1.35631 29.167 9.77387
1 2.93701 3.55271e-15 10.6006
1 3.73071 29.2063 10.6006
1 3.72061 29.9424 9.77639
1 2.92273 29.1805 9.80476
1 4.52441 3.55271e-15 10.6006
1 5.31811 29.2063 10.6006
1 5.2962 29.9548 9.74463
1 4.49637 29.179 9.82615
1 6.11181 3.55271e-15 10.6006
1 6.90551 29.2063 10.6006
1 6.91017 29.9088 9.76518
1 6.09972 29.1766 9.8108
1 7.69921 3.55271e-15 10.6006
1 8.49291 29.2063 10.6006
1 8.51329 29.9189 9.78331
1 7.70625 29.1797 9.81863
1 9.28661 3.55271e-15 10.6006
1 10.0803 29.2063 10.6006
1 10.0794 29.9445 9.76765
1 9.28122 29.1699 9.79706
1 10.874 3.55271e-15 10.6006
1 11.6677 29.2063 10.6006
1 11.6812 29.9268 9.76156
1 10.8692 29.1859 9.79739
1 12.4614 3.55271e-15 10.6006
1 13.2551 29.2063 10.6006
1 13.2526 29.9583 9.74466
1 12.4728 29.1654 9.80171
1 14.0488 3.55271e-15 10.6006
1 14.8425 29.2063 10.6006
1 14.846 29.9417 9.789
1 14.055 29.1853 9.83014
1 15.6362 3.55271e-15 10.6006
1 16.4299 29.2063 10.6006
1 16.4457 29.9496 9.77004
1 15.6623 29.1771 9.81517
1 17.2236 3.55271e-15 10.6006
1 18.0173 29.2063 10.6006
1 18.0161 29.9114 9.7964
1 17.2297 29.1584 9.80952
1 18.811 3.55271e-15 10.6006
1 19.6047 29.2063 10.6006
1 19.6102 29.9241 9.77544
1 18.815 29.1745 9.7891
1 20.3984 3.55271e-15 10.6006
1 21.1921 29.2063 10.6006
1 21.1978 29.9619 9.75336
1 20.401 29.1892 9.78662
1 21.9858 3.55271e-15 10.6006
1 22.7795 29.2063 10.6006
1 22.783 29.9401 9.77074
1 21.9716 29.1829 9.83861
1 23.5732 3.55271e-15 10.6006
1 24.3669 29.2063 10.6006
1 24.2968 29.9268 9.71287
1 23.5618 29.1582 9.7693
1 25 28.4126 10.6006
1 25.7937 27.6189 10.6006
1 25.8216 28.3884 9.80086
1 25.0838 27.5975 9.75954
1 26.5874 28.4126 10.6006
1 27.3811 27.6189 10.6006
1 27.3744 28.3887 9.81992
1 26.6129 27.6001 9.79653
1 28.1748 28.4126 10.6006
1 28.9685 27.6189 10.6006
1 28.9786 28.4126 9.83865
1 28.1856 27.6114 9.81052
1 29.7622 28.4126 10.6006
1 0.555904 27.6189 10.6006
1 0.520502 28.4072 9.79886
1 29.7583 27.6216 9.79825
1 1.3496 28.4126 10.6006
1 2.1433 27.6189 10.6006
1 2.16925 28.3852 9.80579
1 1.33682 27.6451 9.83338
1 2.93701 28.4126 10.6006
1 3.73071 27.6189 10.6006
1 3.73611 28.3865 9.82426
1 2.95298 27.5942 9.81299
1 4.52441 28.4126 10.6006
1 5.31811 27.6189 10.6006
1 5.31947 28.3943 9.78562
1 4.54417 27.5916 9.80706
1 6.11181 28.4126 10.6006
1 6.90551 27.6189 10.6006
1 6.91576 28.4117 9.80207
1 6.0929 27.5993 9.81401
1 7.69921 28.4126 10.6006
1 8.49291 27.6189 10.6006
1 8.49146 28.3869 9.8194
1 7.69948 27.5978 9.80374
1 9.28661 28.4126 10.6006
1 10.0803 27.6189 10.6006
1 10.0774 28.4063 9.81463
1 9.27292 27.6238 9.82149
1 10.874 28.4126 10.6006
1 11.6677 27.6189 10.6006
1 11.6853 28.3923 9.83859
1 10.8826 27.6158 9.83843
1 12.4614 28.4126 10.6006
1 13.2551 27.6189 10.6006
1 13.2425 28.409 9.81899
1 12.4893 27.6346 9.79727
1 14.0488 28.4126 10.6006
1 14.8425 27.6189 10.6006
1 14.8318 28.4126 9.8127
1 14.0648 27.6105 9.81979
1 15.6362 28.4126 10.6006
1 16.4299 27.6189 10.6006
1 16.4405 28.4065 9.81852
1 15.6414 27.618 9.80541
1 17.2236 28.4126 10.6006
1 18.0173 27.6189 10.6006
1 18.0055 28.4192 9.82147
1 17.2457 27.5974 9.82038
1 18.811 28.4126 10.6006
1 19.6047 27.6189 10.6006
1 19.6076 28.3833 9.81378
1 18.7924 27.6057 9.80477
1 20.3984 28.4126 10.6006
1 21.1921 27.6189 10.6006
1 21.1746 28.3643 9.80621
1 20.3806 27.6002 9.79684
1 21.9858 28.4126 10.6006
1 22.7795 27.6189 10.6006
1 22.7893 28.4043 9.79797
1 21.9885 27.6284 9.80614
1 23.5732 28.4126 10.6006
1 24.3669 27.6189 10.6006
1 24.3005 28.3941 9.77491
1 23.5432 27.581 9.81234
1 25 26.8252 10.6006
1 25.7937 26.0315 10.6006
1 25.8176 26.8293 9.82857
1 25.0802 26.0307 9.77488
1 26.5874 26.8252 10.6006
1 27.3811 26.0315 10.6006
1 27.3858 26.8153 9.78564
1 26.6011 26.0238 9.79349
1 28.1748 26.8252 10.6006
1 28.9685 26.0315 10.6006
1 28.9731 26.8075 9.80762
1 28.1942 26.0418 9.80532
1 29.7622 26.8252 10.6006
1 0.555904 26.0315 10.6006
1 0.558931 26.8135 9.84053
1 29.774 26.0342 9.79966
1 1.3496 26.8252 10.6006
1 2.1433 26.0315 10.6006
1 2.13644 26.8226 9.81415
1 1.37306 26.0151 9.83396
1 2.93701 26.8252 10.6006
1 3.73071 26.0315 10.6006
1 3.72723 26.8181 9.80881
1 2.92949 26.0197 9.81858
1 4.52441 26.8252 10.6006
1 5.31811 26.0315 10.6006
1 5.29349 26.8188 9.81143
1 4.55059 26.0076 9.79424
1 6.11181 26.8252 10.6006
1 6.90551 26.0315 10.6006
1 6.89772 26.8108 9.7872
1 6.11393 26.0067 9.81179
1 7.69921 26.8252 10.6006
1 8.49291 26.0315 10.6006
1 8.49866 26.8352 9.834
1 7.67397 26.0207 9.83013
1 9.28661 26.8252 10.6006
1 10.0803 26.0315 10.6006
1 10.0528 26.8303 9.7987
1 9.27302 26.0026 9.81153
1 10.874 26.8252 10.6006
1 11.6677 26.0315 10.6006
1 11.6881 26.8234 9.80116
1 10.8969 26.0162 9.79628
1 12.4614 26.8252 10.6006
1 13.2551 26.0315 10.6006
1 13.2663 26.8322 9.80434
1 12.4635 26.0362 9.7857
1 14.0488 26.8252 10.6006
1 14.8425 26.0315 10.6006
1 14.8727 26.8042 9.81672
1 14.0506 26.0285 9.81099
1 15.6362 26.8252 10.6006
1 16.4299 26.0315 10.6006
1 16.4283 26.815 9.82069
1 15.6417 26.032 9.78725
1 17.2236 26.8252 10.6006
1 18.0173 26.0315 10.6006
1 18.0347 26.7862 9.79863
1 17.2318 26.0105 9.79797
1 18.811 26.8252 10.6006
1 19.6047 26.0315 10.6006
1 19.5947 26.8083 9.81985
1 18.8174 26.0258 9.80981
1 20.3984 26.8252 10.6006
1 21.1921 26.0315 10.6006
1 21.1792 26.8226 9.83527
1 20.3934 26.022 9.8175
1 21.9858 26.8252 10.6006
1 22.7795 26.0315 10.6006
1 22.7508 26.8235 9.80632
1 21.9918 26.0092 9.80899
1 23.5732 26.8252 10.6006
1 24.3669 26.0315 10.6006
1 24.2911 26.8134 9.78857
1 23.533 26.0261 9.79859
1 25 25.2378 10.6006
1 25.7937 24.4441 10.6006
1 25.8264 25.2463 9.80478
1 25.0741 24.4554 9.77115
1 26.5874 25.2378 10.6006
1 27.3811 24.4441 10.6006
1 27.3986 25.243 9.78766
1 26.5914 24.4457 9.79111
1 28.1748 25.2378 10.6006
1 28.9685 24.4441 10.6006
1 28.9852 25.2444 9.8112
1 28.1866 24.4384 9.83017
1 29.7622 25.2378 10.6006
1 0.555904 24.4441 10.6006
1 0.561636 25.2516 9.78605
1 29.7869 24.4213 9.82812
1 1.3496 25.2378 10.6006
1 2.1433 24.4441 10.6006
1 2.12819 25.2159 9.81262
1 1.34655 24.4329 9.81017
1 2.93701 25.2378 10.6006
1 3.73071 24.4441 10.6006
1 3.74355 25.2417 9.81364
1 2.93142 24.463 9.81568
1 4.52441 25.2378 10.6006
1 5.31811 24.4441 10.6006
1 5.31263 25.2286 9.80813
1 4.51608 24.4457 9.82276
1 6.11181 25.2378 10.6006
1 6.90551 24.4441 10.6006
1 6.92558 25.235 9.807
1 6.12648 24.4435 9.81007
1 7.69921 25.2378 10.6006
1 8.49291 24.4441 10.6006
1 8.4822 25.2498 9.7966
1 7.71056 24.4639 9.81536
1 9.28661 25.2378 10.6006
1 10.0803 24.4441 10.6006
1 10.0538 25.2353 9.81465
1 9.28651 24.4489 9.81944
1 10.874 25.2378 10.6006
1 11.6677 24.4441 10.6006
1 11.6661 25.2269 9.80862
1 10.8689 24.4273 9.80202
1 12.4614 25.2378 10.6006
1 13.2551 24.4441 10.6006
1 13.2243 25.2381 9.79942
1 12.466 24.4283 9.8012
1 14.0488 25.2378 10.6006
1 14.8425 24.4441 10.6006
1 14.8583 25.2283 9.78219
1 14.0252 24.4661 9.8059
1 15.6362 25.2378 10.6006
1 16.4299 24.4441 10.6006
1 16.4599 25.2336 9.78529
1 15.6521 24.4542 9.77591
1 17.2236 25.2378 10.6006
1 18.0173 24.4441 10.6006
1 17.9903 25.2445 9.7755
1 17.2328 24.4518 9.78754
1 18.811 25.2378 10.6006
1 19.6047 24.4441 10.6006
1 19.6069 25.2491 9.79912
1 18.8051 24.4409 9.81536
1 20.3984 25.2378 10.6006
1 21.1921 24.4441 10.6006
1 21.1866 25.2163 9.81052
1 20.3737 24.464 9.79874
1 21.9858 25.2378 10.6006
1 22.7795 24.4441 10.6006
1 22.7613 25.2157 9.81216
1 21.9651 24.4292 9.80821
1 23.5732 25.2378 10.6006
1 24.3669 24.4441 10.6006
1 24.3118 25.2099 9.77411
1 23.5253 24.4456 9.80017
1 25 23.6504 10.6006
1 25.7937 22.8567 10.6006
1 25.8026 23.6563 9.80677
1 25.0721 22.8802 9.78744
1 26.5874 23.6504 10.6006
1 27.3811 22.8567 10.6006
1 27.3921 23.6405 9.80617
1 26.599 22.835 9.79318
1 28.1748 23.6504 10.6006
1 28.9685 22.8567 10.6006
1 28.9962 23.6401 9.79039
1 28.2114 22.8685 9.80948
1 29.7622 23.6504 10.6006
1 0.555904 22.8567 10.6006
1 0.54769 23.6416 9.7898
1 29.7427 22.8499 9.82103
1 1.3496 23.6504 10.6006
1 2.1433 22.8567 10.6006
1 2.14327 23.6738 9.81137
1 1.37625 22.8546 9.80302
1 2.93701 23.6504 10.6006
1 3.73071 22.8567 10.6006
1 3.71164 23.6571 9.78054
1 2.9239 22.8779 9.81853
1 4.52441 23.6504 10.6006
1 5.31811 22.8567 10.6006
1 5.34583 23.6453 9.81236
1 4.52611 22.8712 9.7928
1 6.11181 23.6504 10.6006
1 6.90551 22.8567 10.6006
1 6.91746 23.6302 9.83147
1 6.11581 22.8474 9.81571
1 7.69921 23.6504 10.6006
1 8.49291 22.8567 10.6006
1 8.51318 23.6591 9.80153
1 7.73231 22.8662 9.78906
1 9.28661 23.6504 10.6006
1 10.0803 22.8567 10.6006
1 10.078 23.6559 9.82461
1 9.30111 22.8593 9.84477
1 10.874 23.6504 10.6006
1 11.6677 22.8567 10.6006
1 11.6923 23.6547 9.80661
1 10.8794 22.8609 9.81987
1 12.4614 23.6504 10.6006
1 13.2551 22.8567 10.6006
1 13.2576 23.6421 9.81565
1 12.4611 22.857 9.805
1 14.0488 23.6504 10.6006
1 14.8425 22.8567 10.6006
1 14.8279 23.6366 9.80409
1 14.0307 22.8492 9.80611
1 15.6362 23.6504 10.6006
1 16.4299 22.8567 10.6006
1 16.4416 23.6575 9.81864
1 15.6365 22.8611 9.80903
1 17.2236 23.6504 10.6006
1 18.0173 22.8567 10.6006
1 18.0091 23.6418 9.80082
1 17.2218 22.8824 9.81727
1 18.811 23.6504 10.6006
1 19.6047 22.8567 10.6006
1 19.6347 23.6619 9.81522
1 18.8345 22.8528 9.82843
1 20.3984 23.6504 10.6006
1 21.1921 22.8567 10.6006
1 21.1748 23.6598 9.80322
1 20.3744 22.8582 9.8022
1 21.9858 23.6504 10.6006
1 22.7795 22.8567 10.6006
1 22.7872 23.6162 9.79472
1 21.976 22.8781 9.79965
1 23.5732 23.6504 10.6006
1 24.3669 22.8567 10.6006
1 24.3084 23.6657 9.74844
1 23.5668 22.8529 9.794
1 25 22.063 10.6006
1 25.7937 21.2693 10.6006
1 25.8143 22.0453 9.7936
1 25.0581 21.2538 9.79477
1 26.5874 22.063 10.6006
1 27.3811 21.2693 10.6006
1 27.3932 22.0844 9.82541
1 26.6063 21.2649 9.80877
1 28.1748 22.063 10.6006
1 28.9685 21.2693 10.6006
1 29.0003 22.0596 9.80447
1 28.1659 21.2956 9.80528
1 29.7622 22.063 10.6006
1 0.555904 21.2693 10.6006
1 0.561884 22.0678 9.79852
1 29.7758 21.2528 9.81951
1 1.3496 22.063 10.6006
1 2.1433 21.2693 10.6006
1 2.1574 22.0615 9.7921
1 1.36505 21.272 9.82811
1 2.93701 22.063 10.6006
1 3.73071 21.2693 10.6006
1 3.73303 22.0683 9.8465
1 2.92312 21.2626 9.79537
1 4.52441 22.063 10.6006
1 5.31811 21.2693 10.6006
1 5.31763 22.0751 9.82226
1 4.51197 21.2526 9.81463
1 6.11181 22.063 10.6006
1 6.90551 21.2693 10.6006
1 6.91879 22.0312 9.80361
1 6.11559 21.2725 9.80376
1 7.69921 22.063 10.6006
1 8.49291 21.2693 10.6006
1 8.4634 22.0627 9.81073
1 7.6721 21.2717 9.77369
1 9.28661 22.063 10.6006
1 10.0803 21.2693 10.6006
1 10.0683 22.0679 9.78938
1 9.28625 21.264 9.79424
1 10.874 22.063 10.6006
1 11.6677 21.2693 10.6006
1 11.6561 22.0587 9.79511
1 10.8363 21.2849 9.80268
1 12.4614 22.063 10.6006
1 13.2551 21.2693 10.6006
1 13.2638 22.0624 9.80013
1 12.4373 21.2763 9.79265
1 14.0488 22.063 10.6006
1 14.8425 21.2693 10.6006
1 14.8395 22.0693 9.79741
1 14.0539 21.2805 9.80754
1 15.6362 22.063 10.6006
1 16.4299 21.2693 10.6006
1 16.4089 22.0908 9.82156
1 15.64 21.2761 9.82216
1 17.2236 22.063 10.6006
1 18.0173 21.2693 10.6006
1 18.005 22.0545 9.82387
1 17.2045 21.2853 9.8075
1 18.811 22.063 10.6006
1 19.6047 21.2693 10.6006
1 19.5992 22.0468 9.79523
1 18.805 21.2611 9.7934
1 20.3984 22.063 10.6006
1 21.1921 21.2693 10.6006
1 21.1938 22.0661 9.80779
1 20.3948 21.234 9.81214
1 21.9858 22.063 10.6006
1 22.7795 21.2693 10.6006
1 22.7481 22.0917 9.80841
1 21.9778 21.2464 9.80733
1 23.5732 22.063 10.6006
1 24.3669 21.2693 10.6006
1 24.3176 22.0906 9.75116
1 23.5216 21.2719 9.77245
1 25 20.4756 10.6006
1 25.7937 19.6819 10.6006
1 25.8174 20.4642 9.81634
1 25.0409 19.6421 9.76809
1 26.5874 20.4756 10.6006
1 27.3811 19.6819 10.6006
1 27.3954 20.4784 9.82463
1 26.6092 19.6936 9.80629
1 28.1748 20.4756 10.6006
1 28.9685 19.6819 10.6006
1 28.9847 20.474 9.80079
1 28.185 19.6755 9.80707
1 29.7622 20.4756 10.6006
1 0.555904 19.6819 10.6006
1 0.564785 20.4774 9.80631
1 29.7649 19.6802 9.82735
1 1.3496 20.4756 10.6006
1 2.1433 19.6819 10.6006
1 2.1541 20.4739 9.79963
1 1.35763 19.6641 9.81325
1 2.93701 20.4756 10.6006
1 3.73071 19.6819 10.6006
1 3.72509 20.4618 9.80255
1 2.91935 19.6636 9.79543
1 4.52441 20.4756 10.6006
1 5.31811 19.6819 10.6006
1 5.31983 20.4812 9.81073
1 4.51466 19.6817 9.78895
1 6.11181 20.4756 10.6006
1 6.90551 19.6819 10.6006
1 6.90908 20.465 9.79729
1 6.1015 19.6941 9.80259
1 7.69921 20.4756 10.6006
1 8.49291 19.6819 10.6006
1 8.49744 20.4912 9.79951
1 7.71319 19.6677 9.78956
1 9.28661 20.4756 10.6006
1 10.0803 19.6819 10.6006
1 10.0563 20.4797 9.81569
1 9.31767 19.6697 9.84068
1 10.874 20.4756 10.6006
1 11.6677 19.6819 10.6006
1 11.6523 20.4913 9.79913
1 10.8822 19.6787 9.79159
1 12.4614 20.4756 10.6006
1 13.2551 19.6819 10.6006
1 13.2494 20.4781 9.77699
1 12.481 19.6791 9.80947
1 14.0488 20.4756 10.6006
1 14.8425 19.6819 10.6006
1 14.8131 20.4753 9.7938
1 14.0415 19.6736 9.81216
1 15.6362 20.4756 10.6006
1 16.4299 19.6819 10.6006
1 16.4317 20.466 9.80634
1 15.6352 19.671 9.81977
1 17.2236 20.4756 10.6006
1 18.0173 19.6819 10.6006
1 18.0161 20.4534 9.80789
1 17.2324 19.6934 9.81581
1 18.811 20.4756 10.6006
1 19.6047 19.6819 10.6006
1 19.5831 20.4672 9.78252
1 18.8057 19.6883 9.79197
1 20.3984 20.4756 10.6006
1 21.1921 19.6819 10.6006
1 21.2054 20.4602 9.7886
1 20.4016 19.6831 9.79445
1 21.9858 20.4756 10.6006
1 22.7795 19.6819 10.6006
1 22.7718 20.4618 9.80048
1 21.9579 19.6778 9.81972
1 23.5732 20.4756 10.6006
1 24.3669 19.6819 10.6006
1 24.306 20.4491 9.7894
1 23.5531 19.6972 9.77278
1 25 18.8882 10.6006
1 25.7937 18.0945 10.6006
1 25.8154 18.8896 9.79413
1 25.0976 18.0825 9.77396
1 26.5874 18.8882 10.6006
1 27.3811 18.0945 10.6006
1 27.3812 18.8709 9.79141
1 26.6157 18.0729 9.81225
1 28.1748 18.8882 10.6006
1 28.9685 18.0945 10.6006
1 28.9499 18.8624 9.80647
1 28.1681 18.0964 9.78658
1 29.7622 18.8882 10.6006
1 0.555904 18.0945 10.6006
1 0.57641 18.8767 9.81462
1 29.7319 18.0699 9.80385
1 1.3496 18.8882 10.6006
1 2.1433 18.0945 10.6006
1 2.18023 18.8893 9.79802
1 1.37145 18.0734 9.80939
1 2.93701 18.8882 10.6006
1 3.73071 18.0945 10.6006
1 3.7372 18.8982 9.82754
1 2.93353 18.0854 9.77395
1 4.52441 18.8882 10.6006
1 5.31811 18.0945 10.6006
1 5.32937 18.8973 9.82167
1 4.51792 18.0847 9.79976
1 6.11181 18.8882 10.6006
1 6.90551 18.0945 10.6006
1 6.90445 18.8927 9.81163
1 6.09726 18.1163 9.79254
1 7.69921 18.8882 10.6006
1 8.49291 18.0945 10.6006
1 8.50162 18.8742 9.82208
1 7.68331 18.1025 9.79194
1 9.28661 18.8882 10.6006
1 10.0803 18.0945 10.6006
1 10.1076 18.8897 9.79345
1 9.26621 18.093 9.78583
1 10.874 18.8882 10.6006
1 11.6677 18.0945 10.6006
1 11.6692 18.8998 9.79354
1 10.896 18.0922 9.79853
1 12.4614 18.8882 10.6006
1 13.2551 18.0945 10.6006
1 13.275 18.8616 9.78965
1 12.4635 18.0912 9.78466
1 14.0488 18.8882 10.6006
1 14.8425 18.0945 10.6006
1 14.8391 18.8708 9.83207
1 14.0393 18.074 9.8112
1 15.6362 18.8882 10.6006
1 16.4299 18.0945 10.6006
1 16.4161 18.8783 9.80562
1 15.6195 18.1055 9.80402
1 17.2236 18.8882 10.6006
1 18.0173 18.0945 10.6006
1 18.0135 18.8886 9.79837
1 17.2196 18.1069 9.83206
1 18.811 18.8882 10.6006
1 19.6047 18.0945 10.6006
1 19.5972 18.902 9.80304
1 18.8352 18.1086 9.80613
1 20.3984 18.8882 10.6006
1 21.1921 18.0945 10.6006
1 21.1898 18.9007 9.796
1 20.392 18.1301 9.77835
1 21.9858 18.8882 10.6006
1 22.7795 18.0945 10.6006
1 22.7794 18.8891 9.8394
1 21.9773 18.0973 9.8246
1 23.5732 18.8882 10.6006
1 24.3669 18.0945 10.6006
1 24.299 18.8448 9.78654
1 23.5292 18.086 9.80067
1 25 17.3008 10.6006
1 25.7937 16.5071 10.6006
1 25.813 17.2893 9.80471
1 25.0577 16.4964 9.75623
1 26.5874 17.3008 10.6006
1 27.3811 16.5071 10.6006
1 27.4131 17.276 9.80516
1 26.5863 16.5142 9.81026
1 28.1748 17.3008 10.6006
1 28.9685 16.5071 10.6006
1 28.97 17.2989 9.81214
1 28.1787 16.5071 9.80087
1 29.7622 17.3008 10.6006
1 0.555904 16.5071 10.6006
1 0.564945 17.307 9.81189
1 29.7793 16.4887 9.81648
1 1.3496 17.3008 10.6006
1 2.1433 16.5071 10.6006
1 2.16045 17.3037 9.8422
1 1.33011 16.5108 9.80612
1 2.93701 17.3008 10.6006
1 3.73071 16.5071 10.6006
1 3.72026 17.3014 9.8019
1 2.96082 16.5221 9.82231
1 4.52441 17.3008 10.6006
1 5.31811 16.5071 10.6006
1 5.33498 17.2751 9.81104
1 4.51734 16.5239 9.839
1 6.11181 17.3008 10.6006
1 6.90551 16.5071 10.6006
1 6.87896 17.2871 9.79271
1 6.10747 16.4949 9.80733
1 7.69921 17.3008 10.6006
1 8.49291 16.5071 10.6006
1 8.50488 17.2989 9.79471
1 7.69258 16.5196 9.81337
1 9.28661 17.3008 10.6006
1 10.0803 16.5071 10.6006
1 10.0983 17.2795 9.81539
1 9.28525 16.5121 9.82172
1 10.874 17.3008 10.6006
1 11.6677 16.5071 10.6006
1 11.6897 17.2905 9.81344
1 10.8622 16.4957 9.78089
1 12.4614 17.3008 10.6006
1 13.2551 16.5071 10.6006
1 13.2344 17.2992 9.79238
1 12.4638 16.5093 9.80458
1 14.0488 17.3008 10.6006
1 14.8425 16.5071 10.6006
1 14.8408 17.3144 9.79956
1 14.0556 16.5063 9.81259
1 15.6362 17.3008 10.6006
1 16.4299 16.5071 10.6006
1 16.4127 17.3195 9.81437
1 15.6481 16.504 9.82717
1 17.2236 17.3008 10.6006
1 18.0173 16.5071 10.6006
1 18.0282 17.3156 9.80499
1 17.2281 16.5197 9.82822
1 18.811 17.3008 10.6006
1 19.6047 16.5071 10.6006
1 19.5822 17.3022 9.80856
1 18.7898 16.515 9.79931
1 20.3984 17.3008 10.6006
1 21.1921 16.5071 10.6006
1 21.1798 17.3243 9.79292
1 20.3792 16.5295 9.80084
1 21.9858 17.3008 10.6006
1 22.7795 16.5071 10.6006
1 22.7556 17.267 9.82797
1 21.9744 16.4916 9.80832
1 23.5732 17.3008 10.6006
1 24.3669 16.5071 10.6006
1 24.3094 17.3226 9.76264
1 23.5381 16.5 9.8053
1 25 15.7134 10.6006
1 25.7937 14.9197 10.6006
1 25.837 15.7001 9.80798
1 25.0748 14.9015 9.7646
1 26.5874 15.7134 10.6006
1 27.3811 14.9197 10.6006
1 27.354 15.7083 9.80823
1 26.6162 14.947 9.80467
1 28.1748 15.7134 10.6006
1 28.9685 14.9197 10.6006
1 28.981 15.7294 9.7988
1 28.1852 14.9211 9.82138
1 29.7622 15.7134 10.6006
1 0.555904 14.9197 10.6006
1 0.571232 15.7203 9.8175
1 29.7459 14.9158 9.78991
1 1.3496 15.7134 10.6006
1 2.1433 14.9197 10.6006
1 2.13071 15.707 9.79703
1 1.33442 14.924 9.77955
1 2.93701 15.7134 10.6006
1 3.73071 14.9197 10.6006
1 3.72392 15.7074 9.81635
1 2.93311 14.9113 9.82134
1 4.52441 15.7134 10.6006
1 5.31811 14.9197 10.6006
1 5.31609 15.708 9.8018
1 4.53253 14.9205 9.78591
1 6.11181 15.7134 10.6006
1 6.90551 14.9197 10.6006
1 6.90222 15.7295 9.79845
1 6.12826 14.9307 9.78751
1 7.69921 15.7134 10.6006
1 8.49291 14.9197 10.6006
1 8.48468 15.7253 9.79812
1 7.69719 14.9147 9.81249
1 9.28661 15.7134 10.6006
1 10.0803 14.9197 10.6006
1 10.0729 15.7133 9.78468
1 9.2929 14.8914 9.80461
1 10.874 15.7134 10.6006
1 11.6677 14.9197 10.6006
1 11.653 15.7398 9.80058
1 10.8827 14.9267 9.81641
1 12.4614 15.7134 10.6006
1 13.2551 14.9197 10.6006
1 13.2272 15.7096 9.8312
1 12.4552 14.9055 9.82796
1 14.0488 15.7134 10.6006
1 14.8425 14.9197 10.6006
1 14.8562 15.7266 9.7729
1 14.0288 14.9201 9.83018
1 15.6362 15.7134 10.6006
1 16.4299 14.9197 10.6006
1 16.4246 15.6916 9.82502
1 15.6639 14.9298 9.80414
1 17.2236 15.7134 10.6006
1 18.0173 14.9197 10.6006
1 18.025 15.6922 9.84198
1 17.2127 14.8814 9.81315
1 18.811 15.7134 10.6006
1 19.6047 14.9197 10.6006
1 19.602 15.7316 9.81853
1 18.8314 14.9265 9.79051
1 20.3984 15.7134 10.6006
1 21.1921 14.9197 10.6006
1 21.1693 15.7016 9.79765
1 20.372 14.9396 9.80379
1 21.9858 15.7134 10.6006
1 22.7795 14.9197 10.6006
1 22.7583 15.6886 9.79942
1 21.9599 14.9412 9.79541
1 23.5732 15.7134 10.6006
1 24.3669 14.9197 10.6006
1 24.299 15.7091 9.75686
1 23.5359 14.9071 9.78853
1 25 14.126 10.6006
1 25.7937 13.3323 10.6006
1 25.8283 14.1234 9.80051
1 25.0581 13.3162 9.765
1 26.5874 14.126 10.6006
1 27.3811 13.3323 10.6006
1 27.3835 14.1222 9.78539
1 26.5987 13.3529 9.81036
1 28.1748 14.126 10.6006
1 28.9685 13.3323 10.6006
1 28.9953 14.1551 9.80136
1 28.2076 13.3449 9.82506
1 29.7622 14.126 10.6006
1 0.555904 13.3323 10.6006
1 0.575384 14.1174 9.80684
1 29.7829 13.3407 9.79452
1 1.3496 14.126 10.6006
1 2.1433 13.3323 10.6006
1 2.13337 14.1275 9.80757
1 1.3457 13.3245 9.82835
1 2.93701 14.126 10.6006
1 3.73071 13.3323 10.6006
1 3.72915 14.1165 9.81682
1 2.94776 13.3434 9.81636
1 4.52441 14.126 10.6006
1 5.31811 13.3323 10.6006
1 5.29813 14.126 9.81196
1 4.54005 13.3282 9.79243
1 6.11181 14.126 10.6006
1 6.90551 13.3323 10.6006
1 6.90871 14.1356 9.81499
1 6.10645 13.3013 9.79872
1 7.69921 14.126 10.6006
1 8.49291 13.3323 10.6006
1 8.50824 14.1342 9.80969
1 7.68407 13.3255 9.83012
1 9.28661 14.126 10.6006
1 10.0803 13.3323 10.6006
1 10.0941 14.1186 9.79598
1 9.29905 13.3502 9.79096
1 10.874 14.126 10.6006
1 11.6677 13.3323 10.6006
1 11.6584 14.117 9.81419
1 10.882 13.3414 9.80646
1 12.4614 14.126 10.6006
1 13.2551 13.3323 10.6006
1 13.2573 14.1104 9.8321
1 12.4639 13.3225 9.79918
1 14.0488 14.126 10.6006
1 14.8425 13.3323 10.6006
1 14.8465 14.119 9.81326
1 14.0564 13.3343 9.7873
1 15.6362 14.126 10.6006
1 16.4299 13.3323 10.6006
1 16.4269 14.1226 9.83462
1 15.6442 13.3483 9.79496
1 17.2236 14.126 10.6006
1 18.0173 13.3323 10.6006
1 18.036 14.1229 9.82678
1 17.2335 13.3397 9.81832
1 18.811 14.126 10.6006
1 19.6047 13.3323 10.6006
1 19.5825 14.1355 9.81162
1 18.8119 13.3216 9.8284
1 20.3984 14.126 10.6006
1 21.1921 13.3323 10.6006
1 21.1662 14.1405 9.81631
1 20.3893 13.3545 9.80631
1 21.9858 14.126 10.6006
1 22.7795 13.3323 10.6006
1 22.7517 14.1089 9.80863
1 21.9843 13.3361 9.81053
1 23.5732 14.126 10.6006
1 24.3669 13.3323 10.6006
1 24.3094 14.1408 9.75692
1 23.5326 13.3189 9.78953
1 25 12.5386 10.6006
1 25.7937 11.7449 10.6006
1 25.8137 12.5346 9.79102
1 25.0719 11.7722 9.75355
1 26.5874 12.5386 10.6006
1 27.3811 11.7449 10.6006
1 27.3806 12.5517 9.79168
1 26.5967 11.7433 9.79532
1 28.1748 12.5386 10.6006
1 28.9685 11.7449 10.6006
1 28.9871 12.5297 9.80061
1 28.2018 11.729 9.78771
1 29.7622 12.5386 10.6006
1 0.555904 11.7449 10.6006
1 0.543021 12.5347 9.79937
1 29.7712 11.7452 9.82526
1 1.3496 12.5386 10.6006
1 2.1433 11.7449 10.6006
1 2.1558 12.5494 9.82551
1 1.36402 11.7409 9.8032
1 2.93701 12.5386 10.6006
1 3.73071 11.7449 10.6006
1 3.75074 12.55 9.79637
1 2.93986 11.7598 9.81415
1 4.52441 12.5386 10.6006
1 5.31811 11.7449 10.6006
1 5.31599 12.5343 9.81739
1 4.54224 11.7444 9.81064
1 6.11181 12.5386 10.6006
1 6.90551 11.7449 10.6006
1 6.90697 12.5384 9.7853
1 6.10893 11.7322 9.80396
1 7.69921 12.5386 10.6006
1 8.49291 11.7449 10.6006
1 8.51751 12.568 9.7977
1 7.71848 11.7538 9.78891
1 9.28661 12.5386 10.6006
1 10.0803 11.7449 10.6006
1 10.0711 12.5659 9.79423
1 9.30736 11.74 9.82299
1 10.874 12.5386 10.6006
1 11.6677 11.7449 10.6006
1 11.6509 12.5371 9.80446
1 10.8692 11.7331 9.8037
1 12.4614 12.5386 10.6006
1 13.2551 11.7449 10.6006
1 13.2539 12.5351 9.81485
1 12.4445 11.724 9.79235
1 14.0488 12.5386 10.6006
1 14.8425 11.7449 10.6006
1 14.8404 12.5472 9.78118
1 14.0384 11.7645 9.79412
1 15.6362 12.5386 10.6006
1 16.4299 11.7449 10.6006
1 16.4556 12.5615 9.8163
1 15.6273 11.7425 9.78851
1 17.2236 12.5386 10.6006
1 18.0173 11.7449 10.6006
1 18.0339 12.539 9.80695
1 17.2446 11.7093 9.80936
1 18.811 12.5386 10.6006
1 19.6047 11.7449 10.6006
1 19.6159 12.556 9.81514
1 18.8302 11.7444 9.81614
1 20.3984 12.5386 10.6006
1 21.1921 11.7449 10.6006
1 21.1779 12.565 9.80835
1 20.3803 11.7415 9.81318
1 21.9858 12.5386 10.6006
1 22.7795 11.7449 10.6006
1 22.7681 12.5051 9.80239
1 21.9885 11.7475 9.82591
1 23.5732 12.5386 10.6006
1 24.3669 11.7449 10.6006
1 24.2995 12.5524 9.76557
1 23.5606 11.7178 9.80221
1 25 10.9512 10.6006
1 25.7937 10.1575 10.6006
1 25.826 10.9502 9.80859
1 25.1028 10.1603 9.75087
1 26.5874 10.9512 10.6006
1 27.3811 10.1575 10.6006
1 27.4025 10.948 9.8239
1 26.5886 10.1463 9.79895
1 28.1748 10.9512 10.6006
1 28.9685 10.1575 10.6006
1 28.9395 10.9154 9.83067
1 28.1659 10.1371 9.83331
1 29.7622 10.9512 10.6006
1 0.555904 10.1575 10.6006
1 0.562561 10.9696 9.837
1 29.7788 10.161 9.80873
1 1.3496 10.9512 10.6006
1 2.1433 10.1575 10.6006
1 2.13384 10.9501 9.84124
1 1.31784 10.1301 9.82289
1 2.93701 10.9512 10.6006
1 3.73071 10.1575 10.6006
1 3.73852 10.9672 9.80471
1 2.94848 10.1688 9.82855
1 4.52441 10.9512 10.6006
1 5.31811 10.1575 10.6006
1 5.31828 10.9164 9.79403
1 4.54581 10.1429 9.82137
1 6.11181 10.9512 10.6006
1 6.90551 10.1575 10.6006
1 6.91468 10.9557 9.80238
1 6.1091 10.1552 9.80401
1 7.69921 10.9512 10.6006
1 8.49291 10.1575 10.6006
1 8.51676 10.9455 9.79703
1 7.67983 10.1524 9.80577
1 9.28661 10.9512 10.6006
1 10.0803 10.1575 10.6006
1 10.0696 10.9405 9.79753
1 9.3015 10.1534 9.80876
1 10.874 10.9512 10.6006
1 11.6677 10.1575 10.6006
1 11.6781 10.915 9.8255
1 10.881 10.1451 9.79514
1 12.4614 10.9512 10.6006
1 13.2551 10.1575 10.6006
1 13.254 10.9665 9.79613
1 12.4726 10.179 9.78471
1 14.0488 10.9512 10.6006
1 14.8425 10.1575 10.6006
1 14.8363 10.9331 9.81449
1 14.0287 10.1528 9.81449
1 15.6362 10.9512 10.6006
1 16.4299 10.1575 10.6006
1 16.4171 10.9363 9.79987
1 15.611 10.1565 9.83152
1 17.2236 10.9512 10.6006
1 18.0173 10.1575 10.6006
1 18.0363 10.9731 9.82323
1 17.2321 10.1431 9.82304
1 18.811 10.9512 10.6006
1 19.6047 10.1575 10.6006
1 19.6246 10.951 9.80333
1 18.7947 10.1472 9.82575
1 20.3984 10.9512 10.6006
1 21.1921 10.1575 10.6006
1 21.2025 10.9214 9.83764
1 20.404 10.1546 9.83132
1 21.9858 10.9512 10.6006
1 22.7795 10.1575 10.6006
1 22.7854 10.9459 9.81328
1 21.9895 10.1535 9.81605
1 23.5732 10.9512 10.6006
1 24.3669 10.1575 10.6006
1 24.3173 10.9328 9.78355
1 23.576 10.139 9.79058
1 25 9.36379 10.6006
1 25.7937 8.57009 10.6006
1 25.8248 9.36407 9.8302
1 25.0753 8.56105 9.77089
1 26.5874 9.36379 10.6006
1 27.3811 8.57009 10.6006
1 27.3801 9.37254 9.83052
1 26.5975 8.56905 9.7976
1 28.1748 9.36379 10.6006
1 28.9685 8.57009 10.6006
1 28.9869 9.35771 9.80308
1 28.1943 8.58076 9.7981
1 29.7622 9.36379 10.6006
1 0.555904 8.57009 10.6006
1 0.552332 9.36286 9.79885
1 29.7632 8.56159 9.81316
1 1.3496 9.36379 10.6006
1 2.1433 8.57009 10.6006
1 2.13003 9.38142 9.80118
1 1.34377 8.55974 9.80077
1 2.93701 9.36379 10.6006
1 3.73071 8.57009 10.6006
1 3.72798 9.38588 9.81478
1 2.95177 8.56884 9.7956
1 4.52441 9.36379 10.6006
1 5.31811 8.57009 10.6006
1 5.32767 9.37088 9.82787
1 4.52607 8.57214 9.82246
1 6.11181 9.36379 10.6006
1 6.90551 8.57009 10.6006
1 6.91597 9.36558 9.7977
1 6.12154 8.57662 9.80083
1 7.69921 9.36379 10.6006
1 8.49291 8.57009 10.6006
1 8.49966 9.34266 9.81315
1 7.71465 8.55349 9.81882
1 9.28661 9.36379 10.6006
1 10.0803 8.57009 10.6006
1 10.0869 9.38328 9.80127
1 9.28552 8.57161 9.81546
1 10.874 9.36379 10.6006
1 11.6677 8.57009 10.6006
1 11.6954 9.38688 9.80127
1 10.8785 8.58559 9.7883
1 12.4614 9.36379 10.6006
1 13.2551 8.57009 10.6006
1 13.2495 9.37304 9.80277
1 12.4678 8.57236 9.82695
1 14.0488 9.36379 10.6006
1 14.8425 8.57009 10.6006
1 14.8092 9.37681 9.82333
1 14.0434 8.56919 9.81266
1 15.6362 9.36379 10.6006
1 16.4299 8.57009 10.6006
1 16.4189 9.38045 9.83522
1 15.6335 8.5585 9.84904
1 17.2236 9.36379 10.6006
1 18.0173 8.57009 10.6006
1 18.0123 9.33445 9.8031
1 17.2104 8.55422 9.78276
1 18.811 9.36379 10.6006
1 19.6047 8.57009 10.6006
1 19.5915 9.36722 9.85506
1 18.8051 8.55217 9.81736
1 20.3984 9.36379 10.6006
1 21.1921 8.57009 10.6006
1 21.2041 9.34573 9.83172
1 20.3897 8.57496 9.81583
1 21.9858 9.36379 10.6006
1 22.7795 8.57009 10.6006
1 22.767 9.33884 9.80673
1 21.9633 8.5706 9.78338
1 23.5732 9.36379 10.6006
1 24.3669 8.57009 10.6006
1 24.3097 9.34369 9.7572
1 23.5183 8.56415 9.79698
1 25 7.77639 10.6006
1 25.7937 6.98268 10.6006
1 25.8202 7.79405 9.79713
1 25.0837 7.00664 9.77195
1 26.5874 7.77639 10.6006
1 27.3811 6.98268 10.6006
1 27.4036 7.78012 9.80979
1 26.595 6.99628 9.79169
1 28.1748 7.77639 10.6006
1 28.9685 6.98268 10.6006
1 28.9786 7.78874 9.80144
1 28.2024 6.96115 9.8072
1 29.7622 7.77639 10.6006
1 0.555904 6.98268 10.6006
1 0.557984 7.77537 9.79116
1 29.7898 7.01936 9.80208
1 1.3496 7.77639 10.6006
1 2.1433 6.98268 10.6006
1 2.16282 7.77775 9.80083
1 1.37274 7.00884 9.80069
1 2.93701 7.77639 10.6006
1 3.73071 6.98268 10.6006
1 3.74082 7.77703 9.79437
1 2.96246 6.98088 9.80124
1 4.52441 7.77639 10.6006
1 5.31811 6.98268 10.6006
1 5.35326 7.78268 9.81931
1 4.51673 6.98073 9.82261
1 6.11181 7.77639 10.6006
1 6.90551 6.98268 10.6006
1 6.89969 7.74853 9.7925
1 6.10857 6.9722 9.81906
1 7.69921 7.77639 10.6006
1 8.49291 6.98268 10.6006
1 8.50234 7.76568 9.81267
1 7.7123 6.98958 9.80283
1 9.28661 7.77639 10.6006
1 10.0803 6.98268 10.6006
1 10.0555 7.77421 9.82951
1 9.27942 6.95042 9.78205
1 10.874 7.77639 10.6006
1 11.6677 6.98268 10.6006
1 11.6597 7.77711 9.81135
1 10.8698 6.97259 9.81323
1 12.4614 7.77639 10.6006
1 13.2551 6.98268 10.6006
1 13.2443 7.7898 9.83131
1 12.453 6.98894 9.80013
1 14.0488 7.77639 10.6006
1 14.8425 6.98268 10.6006
1 14.8509 7.76693 9.83708
1 14.0439 6.96713 9.79973
1 15.6362 7.77639 10.6006
1 16.4299 6.98268 10.6006
1 16.4408 7.77227 9.82384
1 15.6568 7.0159 9.83651
1 17.2236 7.77639 10.6006
1 18.0173 6.98268 10.6006
1 18.0192 7.7725 9.79867
1 17.2335 6.98279 9.80491
1 18.811 7.77639 10.6006
1 19.6047 6.98268 10.6006
1 19.5876 7.78236 9.80419
1 18.7804 6.99323 9.81251
1 20.3984 7.77639 10.6006
1 21.1921 6.98268 10.6006
1 21.202 7.79073 9.79209
1 20.3993 6.9917 9.80042
1 21.9858 7.77639 10.6006
1 22.7795 6.98268 10.6006
1 22.7409 7.77961 9.8037
1 21.9689 6.9533 9.8036
1 23.5732 7.77639 10.6006
1 24.3669 6.98268 10.6006
1 24.2891 7.7584 9.76777
1 23.5532 6.99423 9.79639
1 25 6.18898 10.6006
1 25.7937 5.39528 10.6006
1 25.8171 6.1973 9.79849
1 25.0723 5.40691 9.78775
1 26.5874 6.18898 10.6006
1 27.3811 5.39528 10.6006
1 27.4004 6.18581 9.78943
1 26.6074 5.40354 9.81342
1 28.1748 6.18898 10.6006
1 28.9685 5.39528 10.6006
1 28.9992 6.19642 9.80802
1 28.1923 5.39838 9.81414
1 29.7622 6.18898 10.6006
1 0.555904 5.39528 10.6006
1 0.564074 6.17999 9.82841
1 29.7556 5.39199 9.82784
1 1.3496 6.18898 10.6006
1 2.1433 5.39528 10.6006
1 2.13279 6.20307 9.79194
1 1.34611 5.42054 9.78474
1 2.93701 6.18898 10.6006
1 3.73071 5.39528 10.6006
1 3.74761 6.16277 9.78844