9376
Atoms. Timestep: 4000000
1 30 3.55271e-15 10.6765
1 0.793701 29.2063 10.6765
1 0.832187 29.9383 9.82297
1 0.0660603 29.2012 9.83091
1 1.5874 3.55271e-15 10.6765
1 2.3811 29.2063 10.6765
1 2.40493 29.9195 9.85851
1 1.63261 29.1772 9.87189
1 3.1748 3.55271e-15 10.6765
1 3.9685 29.2063 10.6765
1 3.9674 29.9011 9.81066
1 3.15185 29.1706 9.90793
1 4.7622 3.55271e-15 10.6765
1 5.5559 29.2063 10.6765
1 5.55284 29.94 9.86555
1 4.76831 29.1974 9.85605
1 6.3496 3.55271e-15 10.6765
1 7.1433 29.2063 10.6765
1 7.14636 29.9205 9.8535
1 6.33441 29.1868 9.85954
1 7.93701 3.55271e-15 10.6765
1 8.73071 29.2063 10.6765
1 8.71566 29.9216 9.84475
1 7.94649 29.1701 9.8719
1 9.52441 3.55271e-15 10.6765
1 10.3181 29.2063 10.6765
1 10.301 29.9447 9.82553
1 9.50744 29.1556 9.89128
1 11.1118 3.55271e-15 10.6765
1 11.9055 29.2063 10.6765
1 11.9 29.9343 9.83748
1 11.0704 29.1904 9.90723
1 12.6992 3.55271e-15 10.6765
1 13.4929 29.2063 10.6765
1 13.4757 29.928 9.84406
1 12.7004 29.1854 9.88399
1 14.2866 3.55271e-15 10.6765
1 15.0803 29.2063 10.6765
1 15.0882 29.9371 9.85471
1 14.2829 29.1783 9.85384
1 15.874 3.55271e-15 10.6765
1 16.6677 29.2063 10.6765
1 16.6775 29.9301 9.85347
1 15.8692 29.1694 9.8678
1 17.4614 3.55271e-15 10.6765
1 18.2551 29.2063 10.6765
1 18.234 29.9417 9.84225
1 17.4689 29.159 9.85071
1 19.0488 3.55271e-15 10.6765
1 19.8425 29.2063 10.6765
1 19.8179 29.9335 9.86737
1 19.0434 29.1938 9.8691
1 20.6362 3.55271e-15 10.6765
1 21.4299 29.2063 10.6765
1 21.4219 29.9513 9.83955
1 20.626 29.1753 9.86086
1 22.2236 3.55271e-15 10.6765
1 23.0173 29.2063 10.6765
1 23.0174 29.9166 9.8694
1 22.2138 29.1879 9.87996
1 23.811 3.55271e-15 10.6765
1 24.6047 29.2063 10.6765
1 24.5923 29.9092 9.84884
1 23.8012 29.1752 9.86341
1 25.3984 3.55271e-15 10.6765
1 26.1921 29.2063 10.6765
1 26.1823 29.9391 9.83255
1 25.4034 29.1727 9.88036
1 26.9858 3.55271e-15 10.6765
1 27.7795 29.2063 10.6765
1 27.7607 29.903 9.8437
1 26.9801 29.1654 9.88522
1 28.5732 3.55271e-15 10.6765
1 29.3669 29.2063 10.6765
1 29.2971 29.9472 9.82011
1 28.5424 29.1839 9.88498
1 30 28.4126 10.6765
1 0.793701 27.6189 10.6765
1 0.821642 28.404 9.88155
1 0.0616314 27.5929 9.85711
1 1.5874 28.4126 10.6765
1 2.3811 27.6189 10.6765
1 2.40845 28.3805 9.91179
1 1.62408 27.6257 9.87542
1 3.1748 28.4126 10.6765
1 3.9685 27.6189 10.6765
1 3.96421 28.3919 9.88229
1 3.20788 27.629 9.89356
1 4.7622 28.4126 10.6765
1 5.5559 27.6189 10.6765
1 5.55262 28.3854 9.88571
1 4.7715 27.5962 9.88326
1 6.3496 28.4126 10.6765
1 7.1433 27.6189 10.6765
1 7.13694 28.3829 9.90155
1 6.36187 27.6055 9.91364
1 7.93701 28.4126 10.6765
1 8.73071 27.6189 10.6765
1 8.72551 28.4106 9.88051
1 7.93299 27.6329 9.90199
1 9.52441 28.4126 10.6765
1 10.3181 27.6189 10.6765
1 10.3183 28.3916 9.87626
1 9.53229 27.6172 9.88721
1 11.1118 28.4126 10.6765
1 11.9055 27.6189 10.6765
1 11.9008 28.4035 9.87434
1 11.1396 27.6235 9.89916
1 12.6992 28.4126 10.6765
1 13.4929 27.6189 10.6765
1 13.4898 28.406 9.88724
1 12.685 27.5752 9.89792
1 14.2866 28.4126 10.6765
1 15.0803 27.6189 10.6765
1 15.0607 28.3878 9.85759
1 14.2948 27.6 9.86571
1 15.874 28.4126 10.6765
1 16.6677 27.6189 10.6765
1 16.6511 28.4107 9.88756
1 15.8955 27.6239 9.88359
1 17.4614 28.4126 10.6765
1 18.2551 27.6189 10.6765
1 18.258 28.3871 9.87102
1 17.4764 27.6071 9.88157
1 19.0488 28.4126 10.6765
1 19.8425 27.6189 10.6765
1 19.8333 28.4142 9.8755
1 19.058 27.6024 9.8798
1 20.6362 28.4126 10.6765
1 21.4299 27.6189 10.6765
1 21.4173 28.3921 9.87064
1 20.6175 27.5712 9.90618
1 22.2236 28.4126 10.6765
1 23.0173 27.6189 10.6765
1 22.9921 28.3489 9.87883
1 22.2095 27.5911 9.89656
1 23.811 28.4126 10.6765
1 24.6047 27.6189 10.6765
1 24.6165 28.4042 9.86605
1 23.8092 27.6131 9.88391
1 25.3984 28.4126 10.6765
1 26.1921 27.6189 10.6765
1 26.1847 28.4078 9.91338
1 25.4191 27.6157 9.891
1 26.9858 28.4126 10.6765
1 27.7795 27.6189 10.6765
1 27.7711 28.4066 9.89269
1 26.9727 27.6412 9.88943
1 28.5732 28.4126 10.6765
1 29.3669 27.6189 10.6765
1 29.2949 28.402 9.82686
1 28.5379 27.6141 9.83997
1 30 26.8252 10.6765
1 0.793701 26.0315 10.6765
1 0.801954 26.8506 9.88259
1 0.0479388 26.0269 9.87187
1 1.5874 26.8252 10.6765
1 2.3811 26.0315 10.6765
1 2.36341 26.8551 9.89007
1 1.5867 26.0397 9.89043
1 3.1748 26.8252 10.6765
1 3.9685 26.0315 10.6765
1 3.96419 26.8223 9.90595
1 3.17054 26.0605 9.89655
1 4.7622 26.8252 10.6765
1 5.5559 26.0315 10.6765
1 5.56674 26.8237 9.88959
1 4.74924 26.0084 9.88171
1 6.3496 26.8252 10.6765
1 7.1433 26.0315 10.6765
1 7.15556 26.8494 9.89037
1 6.34596 26.0295 9.85719
1 7.93701 26.8252 10.6765
1 8.73071 26.0315 10.6765
1 8.71277 26.8388 9.90104
1 7.90969 26.0487 9.8991
1 9.52441 26.8252 10.6765
1 10.3181 26.0315 10.6765
1 10.3421 26.8286 9.8759
1 9.53547 26.0586 9.90498
1 11.1118 26.8252 10.6765
1 11.9055 26.0315 10.6765
1 11.8954 26.806 9.85283
1 11.1205 25.9974 9.88948
1 12.6992 26.8252 10.6765
1 13.4929 26.0315 10.6765
1 13.4878 26.8222 9.89389
1 12.6995 26.0114 9.87371
1 14.2866 26.8252 10.6765
1 15.0803 26.0315 10.6765
1 15.0805 26.828 9.90449
1 14.2909 26.0362 9.90433
1 15.874 26.8252 10.6765
1 16.6677 26.0315 10.6765
1 16.6836 26.8258 9.87648
1 15.8852 26.0215 9.85284
1 17.4614 26.8252 10.6765
1 18.2551 26.0315 10.6765
1 18.2684 26.8067 9.88914
1 17.4702 26.0195 9.88196
1 19.0488 26.8252 10.6765
1 19.8425 26.0315 10.6765
1 19.837 26.827 9.89862
1 19.0418 25.9869 9.90246
1 20.6362 26.8252 10.6765
1 21.4299 26.0315 10.6765
1 21.421 26.7986 9.88298
1 20.6176 26.037 9.90311
1 22.2236 26.8252 10.6765
1 23.0173 26.0315 10.6765
1 23.0024 26.8209 9.90114
1 22.2337 26.0204 9.89492
1 23.811 26.8252 10.6765
1 24.6047 26.0315 10.6765
1 24.6027 26.8135 9.89412
1 23.8148 26.0325 9.8796
1 25.3984 26.8252 10.6765
1 26.1921 26.0315 10.6765
1 26.1685 26.8048 9.90472
1 25.4015 26.0287 9.91976
1 26.9858 26.8252 10.6765
1 27.7795 26.0315 10.6765
1 27.7524 26.7987 9.8815
1 26.9705 26.0343 9.90911
1 28.5732 26.8252 10.6765
1 29.3669 26.0315 10.6765
1 29.2781 26.8032 9.84805
1 28.534 26.0306 9.86808
1 30 25.2378 10.6765
1 0.793701 24.4441 10.6765
1 0.818037 25.2501 9.87467
1 0.0738866 24.4344 9.83857
1 1.5874 25.2378 10.6765
1 2.3811 24.4441 10.6765
1 2.40081 25.2421 9.88837
1 1.61534 24.4061 9.8909
1 3.1748 25.2378 10.6765
1 3.9685 24.4441 10.6765
1 3.96429 25.2543 9.87767
1 3.18769 24.4411 9.88596
1 4.7622 25.2378 10.6765
1 5.5559 24.4441 10.6765
1 5.5547 25.2434 9.87834
1 4.77503 24.4373 9.89851
1 6.3496 25.2378 10.6765
1 7.1433 24.4441 10.6765
1 7.12016 25.235 9.91865
1 6.34163 24.4516 9.90353
1 7.93701 25.2378 10.6765
1 8.73071 24.4441 10.6765
1 8.74305 25.2649 9.89728
1 7.95374 24.4471 9.89232
1 9.52441 25.2378 10.6765
1 10.3181 24.4441 10.6765
1 10.3302 25.2393 9.86718
1 9.54651 24.4329 9.91482
1 11.1118 25.2378 10.6765
1 11.9055 24.4441 10.6765
1 11.9072 25.2113 9.88838
1 11.1088 24.429 9.88083
1 12.6992 25.2378 10.6765
1 13.4929 24.4441 10.6765
1 13.5136 25.2317 9.89035
1 12.733 24.436 9.89962
1 14.2866 25.2378 10.6765
1 15.0803 24.4441 10.6765
1 15.0765 25.2328 9.87808
1 14.2725 24.4174 9.88173
1 15.874 25.2378 10.6765
1 16.6677 24.4441 10.6765
1 16.6584 25.2527 9.90061
1 15.8654 24.4527 9.86915
1 17.4614 25.2378 10.6765
1 18.2551 24.4441 10.6765
1 18.2434 25.2467 9.88819
1 17.4557 24.4551 9.87196
1 19.0488 25.2378 10.6765
1 19.8425 24.4441 10.6765
1 19.856 25.2296 9.87514
1 19.0395 24.4451 9.88228
1 20.6362 25.2378 10.6765
1 21.4299 24.4441 10.6765
1 21.3885 25.238 9.87807
1 20.6361 24.4325 9.87521
1 22.2236 25.2378 10.6765
1 23.0173 24.4441 10.6765
1 23.0127 25.2147 9.85484
1 22.2177 24.4384 9.89107
1 23.811 25.2378 10.6765
1 24.6047 24.4441 10.6765
1 24.5855 25.2465 9.86959
1 23.8091 24.4257 9.88051
1 25.3984 25.2378 10.6765
1 26.1921 24.4441 10.6765
1 26.2057 25.2626 9.86681
1 25.4038 24.4541 9.88215
1 26.9858 25.2378 10.6765
1 27.7795 24.4441 10.6765
1 27.7463 25.2377 9.8805
1 26.9822 24.4664 9.8652
1 28.5732 25.2378 10.6765
1 29.3669 24.4441 10.6765
1 29.2806 25.2224 9.86126
1 28.5437 24.4302 9.87256
1 30 23.6504 10.6765
1 0.793701 22.8567 10.6765
1 0.828687 23.6399 9.89355
1 0.0821321 22.8435 9.87623
1 1.5874 23.6504 10.6765
1 2.3811 22.8567 10.6765
1 2.4016 23.6401 9.89007
1 1.59866 22.8745 9.88362
1 3.1748 23.6504 10.6765
1 3.9685 22.8567 10.6765
1 3.97257 23.6434 9.87906
1 3.18449 22.8532 9.90082
1 4.7622 23.6504 10.6765
1 5.5559 22.8567 10.6765
1 5.55241 23.6644 9.88472
1 4.79257 22.8508 9.85705
1 6.3496 23.6504 10.6765
1 7.1433 22.8567 10.6765
1 7.14045 23.6491 9.8902
1 6.36917 22.8649 9.88586
1 7.93701 23.6504 10.6765
1 8.73071 22.8567 10.6765
1 8.72387 23.6375 9.89375
1 7.94661 22.8448 9.88411
1 9.52441 23.6504 10.6765
1 10.3181 22.8567 10.6765
1 10.3343 23.6485 9.91407
1 9.52081 22.8643 9.88294
1 11.1118 23.6504 10.6765
1 11.9055 22.8567 10.6765
1 11.9196 23.656 9.87957
1 11.1108 22.8599 9.8748
1 12.6992 23.6504 10.6765
1 13.4929 22.8567 10.6765
1 13.5078 23.643 9.88078
1 12.6898 22.864 9.88923
1 14.2866 23.6504 10.6765
1 15.0803 22.8567 10.6765
1 15.0722 23.6554 9.88449
1 14.2956 22.8517 9.87668
1 15.874 23.6504 10.6765
1 16.6677 22.8567 10.6765
1 16.6874 23.661 9.88175
1 15.859 22.8469 9.87353
1 17.4614 23.6504 10.6765
1 18.2551 22.8567 10.6765
1 18.2414 23.6457 9.87681
1 17.4468 22.8516 9.88447
1 19.0488 23.6504 10.6765
1 19.8425 22.8567 10.6765
1 19.8312 23.6462 9.87776
1 19.0425 22.8535 9.87235
1 20.6362 23.6504 10.6765
1 21.4299 22.8567 10.6765
1 21.4351 23.6496 9.86613
1 20.6259 22.849 9.90421
1 22.2236 23.6504 10.6765
1 23.0173 22.8567 10.6765
1 23.0452 23.6399 9.87176
1 22.1935 22.86 9.87716
1 23.811 23.6504 10.6765
1 24.6047 22.8567 10.6765
1 24.596 23.6581 9.89697
1 23.809 22.8643 9.87704
1 25.3984 23.6504 10.6765
1 26.1921 22.8567 10.6765
1 26.1926 23.6609 9.87455
1 25.3981 22.8593 9.92396
1 26.9858 23.6504 10.6765
1 27.7795 22.8567 10.6765
1 27.771 23.6612 9.86379
1 26.9615 22.8491 9.89613
1 28.5732 23.6504 10.6765
1 29.3669 22.8567 10.6765
1 29.288 23.6443 9.8584
1 28.5644 22.8463 9.88639
1 30 22.063 10.6765
1 0.793701 21.2693 10.6765
1 0.816554 22.0403 9.87305
1 0.0557703 21.2652 9.83406
1 1.5874 22.063 10.6765
1 2.3811 21.2693 10.6765
1 2.3811 22.0705 9.93081
1 1.60146 21.2698 9.88513
1 3.1748 22.063 10.6765
1 3.9685 21.2693 10.6765
1 3.9605 22.079 9.88616
1 3.17735 21.2732 9.87167
1 4.7622 22.063 10.6765
1 5.5559 21.2693 10.6765
1 5.56331 22.0781 9.8818
1 4.76851 21.2696 9.88851
1 6.3496 22.063 10.6765
1 7.1433 21.2693 10.6765
1 7.12326 22.0547 9.89316
1 6.32904 21.2678 9.88692
1 7.93701 22.063 10.6765
1 8.73071 21.2693 10.6765
1 8.76469 22.0621 9.90718
1 7.94593 21.258 9.88732
1 9.52441 22.063 10.6765
1 10.3181 21.2693 10.6765
1 10.3053 22.0454 9.88003
1 9.53338 21.2511 9.88276
1 11.1118 22.063 10.6765
1 11.9055 21.2693 10.6765
1 11.8933 22.0685 9.89114
1 11.1108 21.2532 9.87096
1 12.6992 22.063 10.6765
1 13.4929 21.2693 10.6765
1 13.4947 22.0741 9.87893
1 12.6877 21.2505 9.90401
1 14.2866 22.063 10.6765
1 15.0803 21.2693 10.6765
1 15.0691 22.0526 9.8823
1 14.2826 21.283 9.89155
1 15.874 22.063 10.6765
1 16.6677 21.2693 10.6765
1 16.6644 22.0646 9.8613
1 15.868 21.2722 9.87038
1 17.4614 22.063 10.6765
1 18.2551 21.2693 10.6765
1 18.2258 22.0694 9.90294
1 17.4732 21.2871 9.89284
1 19.0488 22.063 10.6765
1 19.8425 21.2693 10.6765
1 19.8213 22.0474 9.89287
1 19.0149 21.2431 9.88356
1 20.6362 22.063 10.6765
1 21.4299 21.2693 10.6765
1 21.4207 22.0667 9.86595
1 20.6242 21.2632 9.91116
1 22.2236 22.063 10.6765
1 23.0173 21.2693 10.6765
1 23.0111 22.0783 9.89432
1 22.2243 21.2463 9.87481
1 23.811 22.063 10.6765
1 24.6047 21.2693 10.6765
1 24.5927 22.0515 9.90108
1 23.8035 21.2852 9.89864
1 25.3984 22.063 10.6765
1 26.1921 21.2693 10.6765
1 26.1894 22.0386 9.88828
1 25.3933 21.2824 9.88231
1 26.9858 22.063 10.6765
1 27.7795 21.2693 10.6765
1 27.7559 22.0674 9.86509
1 26.966 21.2477 9.88901
1 28.5732 22.063 10.6765
1 29.3669 21.2693 10.6765
1 29.2947 22.0553 9.83784
1 28.5461 21.2688 9.88454
1 30 20.4756 10.6765
1 0.793701 19.6819 10.6765
1 0.824848 20.4924 9.87659
1 0.0705855 19.694 9.8384
1 1.5874 20.4756 10.6765
1 2.3811 19.6819 10.6765
1 2.38202 20.45 9.8857
1 1.59454 19.6979 9.88876
1 3.1748 20.4756 10.6765
1 3.9685 19.6819 10.6765
1 3.96328 20.4562 9.89045
1 3.18641 19.6647 9.87537
1 4.7622 20.4756 10.6765
1 5.5559 19.6819 10.6765
1 5.55871 20.4701 9.88032
1 4.78171 19.6715 9.90714
1 6.3496 20.4756 10.6765
1 7.1433 19.6819 10.6765
1 7.14748 20.4651 9.90595
1 6.35292 19.6921 9.88263
1 7.93701 20.4756 10.6765
1 8.73071 19.6819 10.6765
1 8.74964 20.4715 9.89355
1 7.94387 19.6866 9.89349
1 9.52441 20.4756 10.6765
1 10.3181 19.6819 10.6765
1 10.3315 20.4672 9.8874
1 9.52085 19.6796 9.90955
1 11.1118 20.4756 10.6765
1 11.9055 19.6819 10.6765
1 11.9089 20.4682 9.88433
1 11.1109 19.6657 9.87582
1 12.6992 20.4756 10.6765
1 13.4929 19.6819 10.6765
1 13.4859 20.4807 9.88087
1 12.6875 19.706 9.88003
1 14.2866 20.4756 10.6765
1 15.0803 19.6819 10.6765
1 15.088 20.4946 9.88502
1 14.2557 19.7029 9.88166
1 15.874 20.4756 10.6765
1 16.6677 19.6819 10.6765
1 16.6724 20.4781 9.85181
1 15.8615 19.6844 9.88852
1 17.4614 20.4756 10.6765
1 18.2551 19.6819 10.6765
1 18.2339 20.4552 9.89568
1 17.4652 19.6586 9.87448
1 19.0488 20.4756 10.6765
1 19.8425 19.6819 10.6765
1 19.8461 20.4772 9.88984
1 19.0528 19.686 9.87146
1 20.6362 20.4756 10.6765
1 21.4299 19.6819 10.6765
1 21.4189 20.4733 9.88911
1 20.6322 19.6723 9.89276
1 22.2236 20.4756 10.6765
1 23.0173 19.6819 10.6765
1 23.0125 20.4546 9.88242
1 22.1993 19.7046 9.88266
1 23.811 20.4756 10.6765
1 24.6047 19.6819 10.6765
1 24.5904 20.4791 9.91759
1 23.8012 19.6923 9.87813
1 25.3984 20.4756 10.6765
1 26.1921 19.6819 10.6765
1 26.1848 20.4733 9.88893
1 25.3901 19.6932 9.87533
1 26.9858 20.4756 10.6765
1 27.7795 19.6819 10.6765
1 27.7464 20.4829 9.87019
1 26.9543 19.6643 9.89451
1 28.5732 20.4756 10.6765
1 29.3669 19.6819 10.6765
1 29.283 20.4805 9.83803
1 28.519 19.6895 9.87261
1 30 18.8882 10.6765
1 0.793701 18.0945 10.6765
1 0.853822 18.8883 9.86372
1 0.071954 18.0865 9.85559
1 1.5874 18.8882 10.6765
1 2.3811 18.0945 10.6765
1 2.36835 18.891 9.86831
1 1.601 18.1051 9.87947
1 3.1748 18.8882 10.6765
1 3.9685 18.0945 10.6765
1 3.9813 18.8979 9.87984
1 3.20172 18.1263 9.90466
1 4.7622 18.8882 10.6765
1 5.5559 18.0945 10.6765
1 5.56943 18.8737 9.91304
1 4.77649 18.0955 9.87709
1 6.3496 18.8882 10.6765
1 7.1433 18.0945 10.6765
1 7.14488 18.9118 9.88251
1 6.36355 18.1101 9.88504
1 7.93701 18.8882 10.6765
1 8.73071 18.0945 10.6765
1 8.74446 18.8836 9.89775
1 7.95903 18.1198 9.89061
1 9.52441 18.8882 10.6765
1 10.3181 18.0945 10.6765
1 10.3099 18.901 9.90503
1 9.53617 18.0737 9.88628
1 11.1118 18.8882 10.6765
1 11.9055 18.0945 10.6765
1 11.9093 18.8755 9.89427
1 11.1213 18.1178 9.87108
1 12.6992 18.8882 10.6765
1 13.4929 18.0945 10.6765
1 13.4941 18.8838 9.89375
1 12.69 18.0951 9.89731
1 14.2866 18.8882 10.6765
1 15.0803 18.0945 10.6765
1 15.1088 18.8981 9.85489
1 14.2831 18.1054 9.90123
1 15.874 18.8882 10.6765
1 16.6677 18.0945 10.6765
1 16.6732 18.8872 9.86837
1 15.8872 18.0833 9.8617
1 17.4614 18.8882 10.6765
1 18.2551 18.0945 10.6765
1 18.2673 18.8766 9.86777
1 17.4679 18.0993 9.8519
1 19.0488 18.8882 10.6765
1 19.8425 18.0945 10.6765
1 19.833 18.8913 9.89448
1 19.0411 18.1134 9.87657
1 20.6362 18.8882 10.6765
1 21.4299 18.0945 10.6765
1 21.4314 18.8892 9.88635
1 20.6484 18.0874 9.88719
1 22.2236 18.8882 10.6765
1 23.0173 18.0945 10.6765
1 22.9865 18.8727 9.8794
1 22.1897 18.083 9.88626
1 23.811 18.8882 10.6765
1 24.6047 18.0945 10.6765
1 24.5997 18.8953 9.86238
1 23.7977 18.0874 9.86677
1 25.3984 18.8882 10.6765
1 26.1921 18.0945 10.6765
1 26.1988 18.9017 9.88261
1 25.386 18.0866 9.86964
1 26.9858 18.8882 10.6765
1 27.7795 18.0945 10.6765
1 27.7479 18.8769 9.86393
1 26.9717 18.0895 9.8856
1 28.5732 18.8882 10.6765
1 29.3669 18.0945 10.6765
1 29.3119 18.889 9.86368
1 28.5668 18.1182 9.88043
1 30 17.3008 10.6765
1 0.793701 16.5071 10.6765
1 0.813603 17.3183 9.87525
1 0.0679317 16.5063 9.84751
1 1.5874 17.3008 10.6765
1 2.3811 16.5071 10.6765
1 2.41783 17.3153 9.87814
1 1.60719 16.5256 9.894
1 3.1748 17.3008 10.6765
1 3.9685 16.5071 10.6765
1 3.96928 17.3118 9.88491
1 3.19616 16.4985 9.87254
1 4.7622 17.3008 10.6765
1 5.5559 16.5071 10.6765
1 5.56459 17.3083 9.90612
1 4.75465 16.5158 9.89969
1 6.3496 17.3008 10.6765
1 7.1433 16.5071 10.6765
1 7.15954 17.3275 9.89419
1 6.35191 16.5206 9.89216
1 7.93701 17.3008 10.6765
1 8.73071 16.5071 10.6765
1 8.73464 17.3084 9.88953
1 7.9378 16.5183 9.89136
1 9.52441 17.3008 10.6765
1 10.3181 16.5071 10.6765
1 10.3336 17.3282 9.87086
1 9.54198 16.5252 9.89204
1 11.1118 17.3008 10.6765
1 11.9055 16.5071 10.6765
1 11.9058 17.3124 9.88255
1 11.0903 16.5217 9.88444
1 12.6992 17.3008 10.6765
1 13.4929 16.5071 10.6765
1 13.4932 17.2959 9.8891
1 12.6855 16.5124 9.88752
1 14.2866 17.3008 10.6765
1 15.0803 16.5071 10.6765
1 15.0887 17.3217 9.91519
1 14.2925 16.5028 9.90222
1 15.874 17.3008 10.6765
1 16.6677 16.5071 10.6765
1 16.6806 17.3045 9.87133
1 15.8957 16.493 9.86333
1 17.4614 17.3008 10.6765
1 18.2551 16.5071 10.6765
1 18.2682 17.2828 9.87955
1 17.4572 16.5195 9.87527
1 19.0488 17.3008 10.6765
1 19.8425 16.5071 10.6765
1 19.8258 17.3004 9.87617
1 19.0575 16.4917 9.87538
1 20.6362 17.3008 10.6765
1 21.4299 16.5071 10.6765
1 21.4154 17.3001 9.87053
1 20.6298 16.5082 9.86637
1 22.2236 17.3008 10.6765
1 23.0173 16.5071 10.6765
1 23.0156 17.2896 9.8955
1 22.2223 16.5295 9.89382
1 23.811 17.3008 10.6765
1 24.6047 16.5071 10.6765
1 24.5818 17.2992 9.89534
1 23.8312 16.4973 9.88154
1 25.3984 17.3008 10.6765
1 26.1921 16.5071 10.6765
1 26.2075 17.2773 9.88019
1 25.3734 16.5203 9.86114
1 26.9858 17.3008 10.6765
1 27.7795 16.5071 10.6765
1 27.7847 17.3077 9.89313
1 27.0268 16.4882 9.89409
1 28.5732 17.3008 10.6765
1 29.3669 16.5071 10.6765
1 29.3126 17.3004 9.86528
1 28.5483 16.5026 9.8781
1 30 15.7134 10.6765
1 0.793701 14.9197 10.6765
1 0.818861 15.749 9.86728
1 0.0780025 14.9314 9.84099
1 1.5874 15.7134 10.6765
1 2.3811 14.9197 10.6765
1 2.38511 15.7294 9.89509
1 1.62229 14.9387 9.86499
1 3.1748 15.7134 10.6765
1 3.9685 14.9197 10.6765
1 3.98247 15.7227 9.87819
1 3.19639 14.934 9.88696
1 4.7622 15.7134 10.6765
1 5.5559 14.9197 10.6765
1 5.57297 15.7002 9.87335
1 4.74025 14.9045 9.90962
1 6.3496 15.7134 10.6765
1 7.1433 14.9197 10.6765
1 7.13091 15.7218 9.89129
1 6.34493 14.9169 9.85741
1 7.93701 15.7134 10.6765
1 8.73071 14.9197 10.6765
1 8.72448 15.715 9.88468
1 7.92917 14.898 9.89
1 9.52441 15.7134 10.6765
1 10.3181 14.9197 10.6765
1 10.3161 15.7135 9.86417
1 9.52524 14.904 9.87668
1 11.1118 15.7134 10.6765
1 11.9055 14.9197 10.6765
1 11.8803 15.7155 9.88659
1 11.1093 14.9057 9.87869
1 12.6992 15.7134 10.6765
1 13.4929 14.9197 10.6765
1 13.4847 15.7101 9.88885
1 12.7054 14.9097 9.9123
1 14.2866 15.7134 10.6765
1 15.0803 14.9197 10.6765
1 15.0916 15.6941 9.88177
1 14.2862 14.8942 9.88608
1 15.874 15.7134 10.6765
1 16.6677 14.9197 10.6765
1 16.6768 15.7173 9.88681
1 15.8837 14.9486 9.89174
1 17.4614 15.7134 10.6765
1 18.2551 14.9197 10.6765
1 18.2764 15.7206 9.87752
1 17.4727 14.9417 9.88998
1 19.0488 15.7134 10.6765
1 19.8425 14.9197 10.6765
1 19.8454 15.7177 9.87529
1 19.0451 14.9048 9.90921
1 20.6362 15.7134 10.6765
1 21.4299 14.9197 10.6765
1 21.4281 15.7179 9.89921
1 20.6211 14.9307 9.89688
1 22.2236 15.7134 10.6765
1 23.0173 14.9197 10.6765
1 23.0191 15.7186 9.88293
1 22.2241 14.9107 9.88375
1 23.811 15.7134 10.6765
1 24.6047 14.9197 10.6765
1 24.5972 15.6975 9.88163
1 23.7939 14.907 9.89448
1 25.3984 15.7134 10.6765
1 26.1921 14.9197 10.6765
1 26.1877 15.7221 9.89169
1 25.4082 14.9244 9.86747
1 26.9858 15.7134 10.6765
1 27.7795 14.9197 10.6765
1 27.7635 15.6693 9.85114
1 26.9799 14.9027 9.88381
1 28.5732 15.7134 10.6765
1 29.3669 14.9197 10.6765
1 29.3044 15.6951 9.83763
1 28.557 14.9039 9.86835
1 30 14.126 10.6765
1 0.793701 13.3323 10.6765
1 0.828731 14.1281 9.85629
1 0.0691461 13.3417 9.86902
1 1.5874 14.126 10.6765
1 2.3811 13.3323 10.6765
1 2.40367 14.1279 9.87951
1 1.60736 13.3598 9.87521
1 3.1748 14.126 10.6765
1 3.9685 13.3323 10.6765
1 3.96062 14.1282 9.88056
1 3.17972 13.3361 9.88971
1 4.7622 14.126 10.6765
1 5.5559 13.3323 10.6765
1 5.57028 14.1067 9.87839
1 4.76973 13.3603 9.86654
1 6.3496 14.126 10.6765
1 7.1433 13.3323 10.6765
1 7.13466 14.1182 9.87935
1 6.34161 13.3371 9.86984
1 7.93701 14.126 10.6765
1 8.73071 13.3323 10.6765
1 8.72212 14.1196 9.89753
1 7.91177 13.3394 9.8665
1 9.52441 14.126 10.6765
1 10.3181 13.3323 10.6765
1 10.3131 14.1147 9.8771
1 9.52393 13.3262 9.91792
1 11.1118 14.126 10.6765
1 11.9055 13.3323 10.6765
1 11.9306 14.1341 9.87971
1 11.1151 13.337 9.89101
1 12.6992 14.126 10.6765
1 13.4929 13.3323 10.6765
1 13.4714 14.1319 9.86982
1 12.6986 13.3155 9.89813
1 14.2866 14.126 10.6765
1 15.0803 13.3323 10.6765
1 15.1004 14.1341 9.87809
1 14.3022 13.3497 9.90489
1 15.874 14.126 10.6765
1 16.6677 13.3323 10.6765
1 16.6611 14.121 9.87538
1 15.8621 13.3561 9.87589
1 17.4614 14.126 10.6765
1 18.2551 13.3323 10.6765
1 18.244 14.1325 9.87945
1 17.4448 13.3312 9.90274
1 19.0488 14.126 10.6765
1 19.8425 13.3323 10.6765
1 19.8195 14.1165 9.89723
1 19.055 13.327 9.87112
1 20.6362 14.126 10.6765
1 21.4299 13.3323 10.6765
1 21.4285 14.1423 9.87506
1 20.6379 13.3145 9.88398
1 22.2236 14.126 10.6765
1 23.0173 13.3323 10.6765
1 23.0191 14.1456 9.90807
1 22.221 13.3438 9.86514
1 23.811 14.126 10.6765
1 24.6047 13.3323 10.6765
1 24.6268 14.1142 9.88946
1 23.8028 13.352 9.87827
1 25.3984 14.126 10.6765
1 26.1921 13.3323 10.6765
1 26.2003 14.1306 9.87753
1 25.3851 13.333 9.87676
1 26.9858 14.126 10.6765
1 27.7795 13.3323 10.6765
1 27.7646 14.1041 9.86232
1 26.9627 13.3139 9.87634
1 28.5732 14.126 10.6765
1 29.3669 13.3323 10.6765
1 29.3012 14.1337 9.8614
1 28.5286 13.3053 9.86212
1 30 12.5386 10.6765
1 0.793701 11.7449 10.6765
1 0.845689 12.5341 9.88025
1 0.0709385 11.7794 9.8546
1 1.5874 12.5386 10.6765
1 2.3811 11.7449 10.6765
1 2.41166 12.531 9.87459
1 1.5974 11.7445 9.8774
1 3.1748 12.5386 10.6765
1 3.9685 11.7449 10.6765
1 3.9829 12.5418 9.88516
1 3.19315 11.733 9.87174
1 4.7622 12.5386 10.6765
1 5.5559 11.7449 10.6765
1 5.53176 12.5273 9.87981
1 4.75834 11.7319 9.88417
1 6.3496 12.5386 10.6765
1 7.1433 11.7449 10.6765
1 7.12949 12.5178 9.88512
1 6.34411 11.7335 9.87895
1 7.93701 12.5386 10.6765
1 8.73071 11.7449 10.6765
1 8.76383 12.542 9.89209
1 7.93965 11.7398 9.8926
1 9.52441 12.5386 10.6765
1 10.3181 11.7449 10.6765
1 10.3255 12.5286 9.86801
1 9.5265 11.7486 9.8922
1 11.1118 12.5386 10.6765
1 11.9055 11.7449 10.6765
1 11.8936 12.5283 9.91196
1 11.1079 11.7495 9.89261
1 12.6992 12.5386 10.6765
1 13.4929 11.7449 10.6765
1 13.5021 12.5311 9.89737
1 12.7007 11.7391 9.91534
1 14.2866 12.5386 10.6765
1 15.0803 11.7449 10.6765
1 15.0738 12.543 9.8952
1 14.2924 11.7099 9.88442
1 15.874 12.5386 10.6765
1 16.6677 11.7449 10.6765
1 16.6596 12.5426 9.8803
1 15.8765 11.7349 9.89362
1 17.4614 12.5386 10.6765
1 18.2551 11.7449 10.6765
1 18.2701 12.5291 9.87895
1 17.4648 11.7327 9.89333
1 19.0488 12.5386 10.6765
1 19.8425 11.7449 10.6765
1 19.8452 12.5203 9.87224
1 19.0454 11.7419 9.88402
1 20.6362 12.5386 10.6765
1 21.4299 11.7449 10.6765
1 21.4308 12.5105 9.89878
1 20.638 11.742 9.86356
1 22.2236 12.5386 10.6765
1 23.0173 11.7449 10.6765
1 23.0147 12.5461 9.87026
1 22.2532 11.7474 9.8828
1 23.811 12.5386 10.6765
1 24.6047 11.7449 10.6765
1 24.5692 12.5466 9.885
1 23.8198 11.7539 9.87637
1 25.3984 12.5386 10.6765
1 26.1921 11.7449 10.6765
1 26.1673 12.5459 9.88053
1 25.3901 11.7751 9.88971
1 26.9858 12.5386 10.6765
1 27.7795 11.7449 10.6765
1 27.7512 12.5442 9.8651
1 26.9763 11.7547 9.8987
1 28.5732 12.5386 10.6765
1 29.3669 11.7449 10.6765
1 29.283 12.5449 9.83188
1 28.5282 11.7758 9.87902
1 30 10.9512 10.6765
1 0.793701 10.1575 10.6765
1 0.809315 10.921 9.88143
1 0.0427068 10.1396 9.84721
1 1.5874 10.9512 10.6765
1 2.3811 10.1575 10.6765
1 2.36335 10.9531 9.88719
1 1.60213 10.1674 9.88843
1 3.1748 10.9512 10.6765
1 3.9685 10.1575 10.6765
1 3.99461 10.8983 9.88276
1 3.1712 10.1358 9.87893
1 4.7622 10.9512 10.6765
1 5.5559 10.1575 10.6765
1 5.56016 10.9306 9.88009
1 4.77826 10.1446 9.88053
1 6.3496 10.9512 10.6765
1 7.1433 10.1575 10.6765
1 7.14005 10.9325 9.90726
1 6.32309 10.1501 9.88423
1 7.93701 10.9512 10.6765
1 8.73071 10.1575 10.6765
1 8.72214 10.9468 9.89467
1 7.9341 10.1364 9.88577
1 9.52441 10.9512 10.6765
1 10.3181 10.1575 10.6765
1 10.304 10.9519 9.89017
1 9.52603 10.1557 9.88408
1 11.1118 10.9512 10.6765
1 11.9055 10.1575 10.6765
1 11.9067 10.9443 9.8868
1 11.1161 10.1752 9.87763
1 12.6992 10.9512 10.6765
1 13.4929 10.1575 10.6765
1 13.4762 10.9351 9.87018
1 12.6903 10.1404 9.87003
1 14.2866 10.9512 10.6765
1 15.0803 10.1575 10.6765
1 15.061 10.9426 9.88712
1 14.2662 10.1558 9.8687
1 15.874 10.9512 10.6765
1 16.6677 10.1575 10.6765
1 16.6798 10.9609 9.88655
1 15.8707 10.1533 9.89942
1 17.4614 10.9512 10.6765
1 18.2551 10.1575 10.6765
1 18.255 10.9443 9.89183
1 17.4959 10.1422 9.85776
1 19.0488 10.9512 10.6765
1 19.8425 10.1575 10.6765
1 19.8124 10.9603 9.89247
1 19.0496 10.169 9.88386
1 20.6362 10.9512 10.6765
1 21.4299 10.1575 10.6765
1 21.4433 10.9491 9.91664
1 20.6355 10.1764 9.87729
1 22.2236 10.9512 10.6765
1 23.0173 10.1575 10.6765
1 23.046 10.9647 9.88369
1 22.2405 10.1633 9.89672
1 23.811 10.9512 10.6765
1 24.6047 10.1575 10.6765
1 24.6008 10.9582 9.89143
1 23.812 10.1753 9.89251
1 25.3984 10.9512 10.6765
1 26.1921 10.1575 10.6765
1 26.1932 10.9721 9.92296
1 25.4163 10.1708 9.88947
1 26.9858 10.9512 10.6765
1 27.7795 10.1575 10.6765
1 27.7603 10.9613 9.9064
1 26.9766 10.17 9.87726
1 28.5732 10.9512 10.6765
1 29.3669 10.1575 10.6765
1 29.3136 10.9522 9.8547
1 28.5359 10.1524 9.89321
1 30 9.36379 10.6765
1 0.793701 8.57009 10.6765
1 0.822501 9.37563 9.88824
1 0.0708749 8.55711 9.88122
1 1.5874 9.36379 10.6765
1 2.3811 8.57009 10.6765
1 2.39466 9.3489 9.87468
1 1.59093 8.55771 9.87015
1 3.1748 9.36379 10.6765
1 3.9685 8.57009 10.6765
1 3.96926 9.36571 9.84513
1 3.18033 8.55595 9.8801
1 4.7622 9.36379 10.6765
1 5.5559 8.57009 10.6765
1 5.55102 9.36061 9.88875
1 4.77164 8.55782 9.88056
1 6.3496 9.36379 10.6765
1 7.1433 8.57009 10.6765
1 7.12453 9.36525 9.88192
1 6.36028 8.59563 9.88097
1 7.93701 9.36379 10.6765
1 8.73071 8.57009 10.6765
1 8.72883 9.3528 9.90986
1 7.92413 8.57338 9.89967
1 9.52441 9.36379 10.6765
1 10.3181 8.57009 10.6765
1 10.3023 9.34494 9.90314
1 9.50783 8.55099 9.87765
1 11.1118 9.36379 10.6765
1 11.9055 8.57009 10.6765
1 11.9073 9.36831 9.88587
1 11.1106 8.58423 9.8847
1 12.6992 9.36379 10.6765
1 13.4929 8.57009 10.6765
1 13.4778 9.36274 9.88192
1 12.6917 8.57903 9.88642
1 14.2866 9.36379 10.6765
1 15.0803 8.57009 10.6765
1 15.0776 9.32152 9.8902
1 14.2747 8.58352 9.88236
1 15.874 9.36379 10.6765
1 16.6677 8.57009 10.6765
1 16.6932 9.3487 9.88675
1 15.8826 8.56461 9.89131
1 17.4614 9.36379 10.6765
1 18.2551 8.57009 10.6765
1 18.2686 9.37429 9.89976
1 17.4613 8.5805 9.90433
1 19.0488 9.36379 10.6765
1 19.8425 8.57009 10.6765
1 19.8713 9.36807 9.87695
1 19.0717 8.59285 9.86961
1 20.6362 9.36379 10.6765
1 21.4299 8.57009 10.6765
1 21.4174 9.37161 9.87439
1 20.6422 8.57443 9.9036
1 22.2236 9.36379 10.6765
1 23.0173 8.57009 10.6765
1 23.0358 9.37151 9.91539
1 22.2312 8.55491 9.89331
1 23.811 9.36379 10.6765
1 24.6047 8.57009 10.6765
1 24.6062 9.3611 9.89681
1 23.8236 8.55736 9.92306
1 25.3984 9.36379 10.6765
1 26.1921 8.57009 10.6765
1 26.1878 9.38383 9.87791
1 25.389 8.55485 9.86766
1 26.9858 9.36379 10.6765
1 27.7795 8.57009 10.6765
1 27.7484 9.36875 9.87367
1 26.966 8.57847 9.89773
1 28.5732 9.36379 10.6765
1 29.3669 8.57009 10.6765
1 29.3079 9.3418 9.85632
1 28.5189 8.59878 9.89067
1 30 7.77639 10.6765
1 0.793701 6.98268 10.6765
1 0.821495 7.76491 9.87572
1 0.0733858 6.97813 9.8457
1 1.5874 7.77639 10.6765
1 2.3811 6.98268 10.6765
1 2.4209 7.76362 9.87511
1 1.59248 7.01495 9.89306
1 3.1748 7.77639 10.6765
1 3.9685 6.98268 10.6765
1 3.97734 7.74953 9.88327
1 3.19485 6.99883 9.87581
1 4.7622 7.77639 10.6765
1 5.5559 6.98268 10.6765
1 5.57013 7.7614 9.89073
1 4.76661 6.98086 9.85708
1 6.3496 7.77639 10.6765
1 7.1433 6.98268 10.6765
1 7.16384 7.77399 9.88488
1 6.35018 6.98383 9.88948
1 7.93701 7.77639 10.6765
1 8.73071 6.98268 10.6765
1 8.75018 7.76768 9.86955
1 7.93404 6.97275 9.90782
1 9.52441 7.77639 10.6765
1 10.3181 6.98268 10.6765
1 10.3294 7.80652 9.89761
1 9.53417 6.98962 9.8937
1 11.1118 7.77639 10.6765
1 11.9055 6.98268 10.6765
1 11.906 7.7872 9.89286
1 11.1098 6.98332 9.89334
1 12.6992 7.77639 10.6765
1 13.4929 6.98268 10.6765
1 13.5006 7.78993 9.88956
1 12.6833 6.99347 9.85076
1 14.2866 7.77639 10.6765
1 15.0803 6.98268 10.6765
1 15.0537 7.75481 9.88777
1 14.2563 6.95381 9.88705
1 15.874 7.77639 10.6765
1 16.6677 6.98268 10.6765
1 16.6893 7.76883 9.86833
1 15.8848 6.98376 9.87985
1 17.4614 7.77639 10.6765
1 18.2551 6.98268 10.6765
1 18.2747 7.80846 9.86945
1 17.4996 7.00524 9.89272
1 19.0488 7.77639 10.6765
1 19.8425 6.98268 10.6765
1 19.8533 7.80333 9.89072
1 19.0485 6.99884 9.91029
1 20.6362 7.77639 10.6765
1 21.4299 6.98268 10.6765
1 21.4355 7.76807 9.90653
1 20.6266 7.00089 9.90335
1 22.2236 7.77639 10.6765
1 23.0173 6.98268 10.6765
1 23.0247 7.75913 9.90663
1 22.2464 6.98791 9.86645
1 23.811 7.77639 10.6765
1 24.6047 6.98268 10.6765
1 24.6127 7.77717 9.87357
1 23.8424 6.96459 9.88466
1 25.3984 7.77639 10.6765
1 26.1921 6.98268 10.6765
1 26.1999 7.81215 9.89147
1 25.4143 6.97997 9.88938
1 26.9858 7.77639 10.6765
1 27.7795 6.98268 10.6765
1 27.7632 7.75719 9.8818
1 26.9379 6.96584 9.87822
1 28.5732 7.77639 10.6765
1 29.3669 6.98268 10.6765
1 29.3047 7.78322 9.85991
1 28.5739 6.98543 9.86783
1 30 6.18898 10.6765
1 0.793701 5.39528 10.6765
1 0.832888 6.19415 9.89216
1 0.0716248 5.40816 9.85024
1 1.5874 6.18898 10.6765
1 2.3811 5.39528 10.6765
1 2.39828 6.17124 9.87301
1 1.59017 5.39282 9.90179
1 3.1748 6.18898 10.6765
1 3.9685 5.39528 10.6765
1 4.00438 6.1967 9.88771
1 3.1996 5.41054 9.8939
1 4.7622 6.18898 10.6765
1 5.5559 5.39528 10.6765
1 5.55635 6.17553 9.87452
1 4.73637 5.40091 9.8953
1 6.3496 6.18898 10.6765
1 7.1433 5.39528 10.6765
1 7.15504 6.19591 9.87155
1 6.35945 5.38104 9.89269
1 7.93701 6.18898 10.6765
1 8.73071 5.39528 10.6765
1 8.7117 6.19184 9.90478
1 7.90941 5.41982 9.90802
1 9.52441 6.18898 10.6765