9376
Atoms. Timestep: 4000000
1 0.375 3.55271e-15 10.5534
1 1.1687 29.2063 10.5534
1 1.21303 29.9263 9.7245
1 0.45225 29.1888 9.71054
1 1.9624 3.55271e-15 10.5534
1 2.7561 29.2063 10.5534
1 2.78879 29.9167 9.71742
1 1.98035 29.1752 9.78463
1 3.5498 3.55271e-15 10.5534
1 4.3435 29.2063 10.5534
1 4.37464 29.9042 9.70157
1 3.52743 29.1919 9.74651
1 5.1372 3.55271e-15 10.5534
1 5.9309 29.2063 10.5534
1 5.93688 29.9327 9.73351
1 5.14733 29.1902 9.75237
1 6.7246 3.55271e-15 10.5534
1 7.5183 29.2063 10.5534
1 7.53198 29.9383 9.71914
1 6.72728 29.1684 9.74915
1 8.31201 3.55271e-15 10.5534
1 9.10571 29.2063 10.5534
1 9.10059 29.9426 9.72171
1 8.30932 29.1596 9.76634
1 9.89941 3.55271e-15 10.5534
1 10.6931 29.2063 10.5534
1 10.6727 29.9386 9.70247
1 9.89589 29.1863 9.76251
1 11.4868 3.55271e-15 10.5534
1 12.2805 29.2063 10.5534
1 12.2814 29.9459 9.71862
1 11.459 29.1819 9.75219
1 13.0742 3.55271e-15 10.5534
1 13.8679 29.2063 10.5534
1 13.8571 29.9526 9.72442
1 13.0688 29.2033 9.7594
1 14.6616 3.55271e-15 10.5534
1 15.4553 29.2063 10.5534
1 15.4605 29.9226 9.74831
1 14.6534 29.1728 9.75568
1 16.249 3.55271e-15 10.5534
1 17.0427 29.2063 10.5534
1 17.0652 29.908 9.73112
1 16.2419 29.1492 9.7143
1 17.8364 3.55271e-15 10.5534
1 18.6301 29.2063 10.5534
1 18.6549 29.9272 9.7291
1 17.8632 29.1571 9.74786
1 19.4238 3.55271e-15 10.5534
1 20.2175 29.2063 10.5534
1 20.2135 29.9414 9.71374
1 19.4122 29.1786 9.73284
1 21.0112 3.55271e-15 10.5534
1 21.8049 29.2063 10.5534
1 21.8188 29.9398 9.7417
1 21.0122 29.1815 9.74782
1 22.5986 3.55271e-15 10.5534
1 23.3923 29.2063 10.5534
1 23.3867 29.9308 9.73879
1 22.6073 29.1827 9.75257
1 24.186 3.55271e-15 10.5534
1 24.9797 29.2063 10.5534
1 24.9934 29.9218 9.73481
1 24.2075 29.175 9.75875
1 25.7734 3.55271e-15 10.5534
1 26.5671 29.2063 10.5534
1 26.5855 29.9347 9.72402
1 25.7569 29.1587 9.75424
1 27.3608 3.55271e-15 10.5534
1 28.1545 29.2063 10.5534
1 28.1391 29.915 9.71169
1 27.3553 29.1772 9.75484
1 28.9482 3.55271e-15 10.5534
1 29.7419 29.2063 10.5534
1 29.6881 29.9421 9.69743
1 28.9133 29.1974 9.7424
1 0.375 28.4126 10.5534
1 1.1687 27.6189 10.5534
1 1.20857 28.389 9.7844
1 0.462814 27.6006 9.72453
1 1.9624 28.4126 10.5534
1 2.7561 27.6189 10.5534
1 2.76131 28.3888 9.76357
1 1.97619 27.6227 9.76121
1 3.5498 28.4126 10.5534
1 4.3435 27.6189 10.5534
1 4.33925 28.3833 9.74978
1 3.56431 27.6214 9.74771
1 5.1372 28.4126 10.5534
1 5.9309 27.6189 10.5534
1 5.91976 28.398 9.78105
1 5.13051 27.582 9.7775
1 6.7246 28.4126 10.5534
1 7.5183 27.6189 10.5534
1 7.50681 28.393 9.75749
1 6.71823 27.6216 9.78217
1 8.31201 28.4126 10.5534
1 9.10571 27.6189 10.5534
1 9.10404 28.3967 9.75091
1 8.32886 27.6236 9.76523
1 9.89941 28.4126 10.5534
1 10.6931 27.6189 10.5534
1 10.6739 28.3884 9.75279
1 9.90645 27.6199 9.7462
1 11.4868 28.4126 10.5534
1 12.2805 27.6189 10.5534
1 12.2964 28.4111 9.75504
1 11.505 27.5894 9.78829
1 13.0742 28.4126 10.5534
1 13.8679 27.6189 10.5534
1 13.8491 28.397 9.7667
1 13.0532 27.6021 9.74568
1 14.6616 28.4126 10.5534
1 15.4553 27.6189 10.5534
1 15.4396 28.4031 9.75918
1 14.6748 27.6163 9.76746
1 16.249 28.4126 10.5534
1 17.0427 27.6189 10.5534
1 17.0409 28.398 9.75427
1 16.2586 27.6177 9.76216
1 17.8364 28.4126 10.5534
1 18.6301 27.6189 10.5534
1 18.6509 28.3835 9.74394
1 17.8524 27.6081 9.74532
1 19.4238 28.4126 10.5534
1 20.2175 27.6189 10.5534
1 20.2006 28.3985 9.73221
1 19.4315 27.5743 9.75682
1 21.0112 28.4126 10.5534
1 21.8049 27.6189 10.5534
1 21.7881 28.3805 9.75829
1 20.9875 27.5843 9.76564
1 22.5986 28.4126 10.5534
1 23.3923 27.6189 10.5534
1 23.4083 28.3632 9.74751
1 22.5891 27.6043 9.76264
1 24.186 28.4126 10.5534
1 24.9797 27.6189 10.5534
1 24.9782 28.4025 9.75785
1 24.2115 27.6076 9.76946
1 25.7734 28.4126 10.5534
1 26.5671 27.6189 10.5534
1 26.5521 28.3947 9.79341
1 25.7671 27.6374 9.77576
1 27.3608 28.4126 10.5534
1 28.1545 27.6189 10.5534
1 28.158 28.4204 9.72823
1 27.3374 27.6261 9.74695
1 28.9482 28.4126 10.5534
1 29.7419 27.6189 10.5534
1 29.6865 28.3903 9.72632
1 28.8943 27.595 9.73372
1 0.375 26.8252 10.5534
1 1.1687 26.0315 10.5534
1 1.18733 26.8535 9.73408
1 0.430445 26.0183 9.73732
1 1.9624 26.8252 10.5534
1 2.7561 26.0315 10.5534
1 2.73116 26.8405 9.77387
1 1.9592 26.0553 9.7555
1 3.5498 26.8252 10.5534
1 4.3435 26.0315 10.5534
1 4.33862 26.8174 9.77507
1 3.55333 26.0363 9.75193
1 5.1372 26.8252 10.5534
1 5.9309 26.0315 10.5534
1 5.96157 26.8255 9.75591
1 5.13231 26.0135 9.73547
1 6.7246 26.8252 10.5534
1 7.5183 26.0315 10.5534
1 7.51908 26.8488 9.74952
1 6.70234 26.037 9.75926
1 8.31201 26.8252 10.5534
1 9.10571 26.0315 10.5534
1 9.11917 26.8238 9.7502
1 8.29822 26.041 9.74283
1 9.89941 26.8252 10.5534
1 10.6931 26.0315 10.5534
1 10.6837 26.8183 9.74875
1 9.91303 26.0182 9.78274
1 11.4868 26.8252 10.5534
1 12.2805 26.0315 10.5534
1 12.2857 26.8191 9.76823
1 11.4986 26.0302 9.74816
1 13.0742 26.8252 10.5534
1 13.8679 26.0315 10.5534
1 13.8471 26.8309 9.77033
1 13.0765 26.0058 9.77134
1 14.6616 26.8252 10.5534
1 15.4553 26.0315 10.5534
1 15.4655 26.8436 9.76024
1 14.6653 26.0407 9.75691
1 16.249 26.8252 10.5534
1 17.0427 26.0315 10.5534
1 17.0685 26.8331 9.76143
1 16.2614 26.0296 9.75202
1 17.8364 26.8252 10.5534
1 18.6301 26.0315 10.5534
1 18.6575 26.8032 9.76556
1 17.8529 26.0056 9.77676
1 19.4238 26.8252 10.5534
1 20.2175 26.0315 10.5534
1 20.1982 26.8157 9.75064
1 19.4139 26.0331 9.77201
1 21.0112 26.8252 10.5534
1 21.8049 26.0315 10.5534
1 21.8 26.8135 9.7471
1 21.0136 26.0287 9.75726
1 22.5986 26.8252 10.5534
1 23.3923 26.0315 10.5534
1 23.3931 26.8034 9.78948
1 22.605 26.0163 9.75181
1 24.186 26.8252 10.5534
1 24.9797 26.0315 10.5534
1 24.9576 26.8117 9.78552
1 24.2054 26.0199 9.77237
1 25.7734 26.8252 10.5534
1 26.5671 26.0315 10.5534
1 26.5558 26.8121 9.76374
1 25.775 26.037 9.80395
1 27.3608 26.8252 10.5534
1 28.1545 26.0315 10.5534
1 28.128 26.7989 9.77155
1 27.3443 26.0444 9.75624
1 28.9482 26.8252 10.5534
1 29.7419 26.0315 10.5534
1 29.667 26.8023 9.72875
1 28.8952 26.037 9.77801
1 0.375 25.2378 10.5534
1 1.1687 24.4441 10.5534
1 1.19298 25.243 9.75703
1 0.433489 24.4258 9.72637
1 1.9624 25.2378 10.5534
1 2.7561 24.4441 10.5534
1 2.77833 25.2424 9.74672
1 1.98582 24.4276 9.74751
1 3.5498 25.2378 10.5534
1 4.3435 24.4441 10.5534
1 4.35152 25.2646 9.77071
1 3.55874 24.4474 9.77535
1 5.1372 25.2378 10.5534
1 5.9309 24.4441 10.5534
1 5.93018 25.2349 9.77723
1 5.13625 24.4544 9.79019
1 6.7246 25.2378 10.5534
1 7.5183 24.4441 10.5534
1 7.51749 25.2519 9.75985
1 6.7336 24.4323 9.78997
1 8.31201 25.2378 10.5534
1 9.10571 24.4441 10.5534
1 9.11192 25.238 9.74409
1 8.32723 24.4323 9.75461
1 9.89941 25.2378 10.5534
1 10.6931 24.4441 10.5534
1 10.7193 25.2329 9.76013
1 9.91342 24.4443 9.76179
1 11.4868 25.2378 10.5534
1 12.2805 24.4441 10.5534
1 12.2805 25.2174 9.76727
1 11.4847 24.4286 9.76318
1 13.0742 25.2378 10.5534
1 13.8679 24.4441 10.5534
1 13.8762 25.2446 9.76437
1 13.1104 24.4055 9.76878
1 14.6616 25.2378 10.5534
1 15.4553 24.4441 10.5534
1 15.4475 25.2444 9.77596
1 14.639 24.4483 9.76739
1 16.249 25.2378 10.5534
1 17.0427 24.4441 10.5534
1 17.0353 25.2543 9.77088
1 16.2339 24.4571 9.75803
1 17.8364 25.2378 10.5534
1 18.6301 24.4441 10.5534
1 18.6577 25.2444 9.74977
1 17.8518 24.4614 9.7542
1 19.4238 25.2378 10.5534
1 20.2175 24.4441 10.5534
1 20.1814 25.2316 9.72942
1 19.4077 24.4214 9.7559
1 21.0112 25.2378 10.5534
1 21.8049 24.4441 10.5534
1 21.7861 25.2296 9.7432
1 21.0084 24.453 9.7548
1 22.5986 25.2378 10.5534
1 23.3923 24.4441 10.5534
1 23.4073 25.2171 9.74808
1 22.6009 24.4267 9.7532
1 24.186 25.2378 10.5534
1 24.9797 24.4441 10.5534
1 24.989 25.2545 9.74421
1 24.2126 24.4446 9.74789
1 25.7734 25.2378 10.5534
1 26.5671 24.4441 10.5534
1 26.5534 25.2582 9.76383
1 25.7759 24.4746 9.74414
1 27.3608 25.2378 10.5534
1 28.1545 24.4441 10.5534
1 28.1277 25.2476 9.77119
1 27.3404 24.4339 9.77253
1 28.9482 25.2378 10.5534
1 29.7419 24.4441 10.5534
1 29.6623 25.2335 9.7286
1 28.9216 24.4344 9.74443
1 0.375 23.6504 10.5534
1 1.1687 22.8567 10.5534
1 1.2035 23.6555 9.76521
1 0.45071 22.8642 9.737
1 1.9624 23.6504 10.5534
1 2.7561 22.8567 10.5534
1 2.77687 23.6278 9.77274
1 1.96536 22.8533 9.76381
1 3.5498 23.6504 10.5534
1 4.3435 22.8567 10.5534
1 4.33351 23.6676 9.76124
1 3.57484 22.8541 9.74121
1 5.1372 23.6504 10.5534
1 5.9309 22.8567 10.5534
1 5.93696 23.6666 9.78273
1 5.15136 22.8579 9.75643
1 6.7246 23.6504 10.5534
1 7.5183 22.8567 10.5534
1 7.49434 23.633 9.75111
1 6.74633 22.8472 9.76605
1 8.31201 23.6504 10.5534
1 9.10571 22.8567 10.5534
1 9.13031 23.6402 9.77873
1 8.31656 22.874 9.74811
1 9.89941 23.6504 10.5534
1 10.6931 22.8567 10.5534
1 10.7018 23.6284 9.75703
1 9.89481 22.8518 9.74231
1 11.4868 23.6504 10.5534
1 12.2805 22.8567 10.5534
1 12.2906 23.6625 9.77431
1 11.4861 22.8521 9.77444
1 13.0742 23.6504 10.5534
1 13.8679 22.8567 10.5534
1 13.8855 23.6385 9.74549
1 13.0839 22.8538 9.75525
1 14.6616 23.6504 10.5534
1 15.4553 22.8567 10.5534
1 15.463 23.6717 9.79386
1 14.6589 22.8492 9.76452
1 16.249 23.6504 10.5534
1 17.0427 22.8567 10.5534
1 17.0497 23.6558 9.74674
1 16.2523 22.8721 9.76579
1 17.8364 23.6504 10.5534
1 18.6301 22.8567 10.5534
1 18.6346 23.6389 9.75562
1 17.809 22.8511 9.73752
1 19.4238 23.6504 10.5534
1 20.2175 22.8567 10.5534
1 20.2086 23.6448 9.73197
1 19.4299 22.8436 9.76659
1 21.0112 23.6504 10.5534
1 21.8049 22.8567 10.5534
1 21.823 23.6462 9.76671
1 20.9916 22.8601 9.76002
1 22.5986 23.6504 10.5534
1 23.3923 22.8567 10.5534
1 23.4239 23.662 9.74769
1 22.588 22.857 9.74806
1 24.186 23.6504 10.5534
1 24.9797 22.8567 10.5534
1 24.9866 23.6562 9.75699
1 24.2164 22.8556 9.76851
1 25.7734 23.6504 10.5534
1 26.5671 22.8567 10.5534
1 26.5568 23.6481 9.75339
1 25.7654 22.8507 9.78215
1 27.3608 23.6504 10.5534
1 28.1545 22.8567 10.5534
1 28.1334 23.6586 9.75215
1 27.3499 22.8482 9.78699
1 28.9482 23.6504 10.5534
1 29.7419 22.8567 10.5534
1 29.6791 23.64 9.73923
1 28.9267 22.8414 9.79056
1 0.375 22.063 10.5534
1 1.1687 21.2693 10.5534
1 1.18235 22.0527 9.7578
1 0.431878 21.2891 9.72041
1 1.9624 22.063 10.5534
1 2.7561 21.2693 10.5534
1 2.76032 22.0728 9.7876
1 1.98498 21.2809 9.73149
1 3.5498 22.063 10.5534
1 4.3435 21.2693 10.5534
1 4.37557 22.0724 9.78875
1 3.56221 21.2477 9.74329
1 5.1372 22.063 10.5534
1 5.9309 21.2693 10.5534
1 5.91246 22.0771 9.75108
1 5.15269 21.2708 9.77544
1 6.7246 22.063 10.5534
1 7.5183 21.2693 10.5534
1 7.53639 22.0487 9.77331
1 6.70529 21.2573 9.77401
1 8.31201 22.063 10.5534
1 9.10571 21.2693 10.5534
1 9.12567 22.0586 9.75235
1 8.33232 21.2467 9.72971
1 9.89941 22.063 10.5534
1 10.6931 21.2693 10.5534
1 10.6879 22.0492 9.76411
1 9.91692 21.2591 9.76519
1 11.4868 22.063 10.5534
1 12.2805 21.2693 10.5534
1 12.2724 22.0755 9.77454
1 11.5 21.2424 9.75679
1 13.0742 22.063 10.5534
1 13.8679 21.2693 10.5534
1 13.8818 22.071 9.7361
1 13.0902 21.2793 9.77705
1 14.6616 22.063 10.5534
1 15.4553 21.2693 10.5534
1 15.4786 22.0444 9.75057
1 14.652 21.2781 9.76509
1 16.249 22.063 10.5534
1 17.0427 21.2693 10.5534
1 17.0297 22.0637 9.77847
1 16.2645 21.272 9.76916
1 17.8364 22.063 10.5534
1 18.6301 21.2693 10.5534
1 18.6321 22.0635 9.77577
1 17.8429 21.2596 9.76333
1 19.4238 22.063 10.5534
1 20.2175 21.2693 10.5534
1 20.235 22.0552 9.76013
1 19.401 21.2643 9.75926
1 21.0112 22.063 10.5534
1 21.8049 21.2693 10.5534
1 21.7986 22.0644 9.73585
1 20.9971 21.2342 9.74879
1 22.5986 22.063 10.5534
1 23.3923 21.2693 10.5534
1 23.4002 22.0755 9.77535
1 22.61 21.2849 9.76105
1 24.186 22.063 10.5534
1 24.9797 21.2693 10.5534
1 24.9717 22.0537 9.77839
1 24.1967 21.2994 9.76945
1 25.7734 22.063 10.5534
1 26.5671 21.2693 10.5534
1 26.5757 22.0454 9.74712
1 25.7646 21.2485 9.75985
1 27.3608 22.063 10.5534
1 28.1545 21.2693 10.5534
1 28.1348 22.0488 9.7438
1 27.3419 21.2549 9.75559
1 28.9482 22.063 10.5534
1 29.7419 21.2693 10.5534
1 29.6916 22.0566 9.72366
1 28.9251 21.2701 9.78264
1 0.375 20.4756 10.5534
1 1.1687 19.6819 10.5534
1 1.18555 20.4916 9.76527
1 0.438466 19.705 9.74205
1 1.9624 20.4756 10.5534
1 2.7561 19.6819 10.5534
1 2.76269 20.4597 9.74829
1 1.97006 19.6675 9.74036
1 3.5498 20.4756 10.5534
1 4.3435 19.6819 10.5534
1 4.35124 20.4599 9.77308
1 3.59107 19.6717 9.78407
1 5.1372 20.4756 10.5534
1 5.9309 19.6819 10.5534
1 5.93618 20.4588 9.74908
1 5.13641 19.6948 9.75284
1 6.7246 20.4756 10.5534
1 7.5183 19.6819 10.5534
1 7.51021 20.4626 9.76775
1 6.74041 19.6903 9.75685
1 8.31201 20.4756 10.5534
1 9.10571 19.6819 10.5534
1 9.13135 20.4678 9.76712
1 8.31227 19.693 9.774
1 9.89941 20.4756 10.5534
1 10.6931 19.6819 10.5534
1 10.6989 20.4712 9.75352
1 9.89695 19.6725 9.73506
1 11.4868 20.4756 10.5534
1 12.2805 19.6819 10.5534
1 12.2831 20.4809 9.77063
1 11.5085 19.6939 9.77479
1 13.0742 20.4756 10.5534
1 13.8679 19.6819 10.5534
1 13.876 20.4768 9.75245
1 13.0681 19.6961 9.76713
1 14.6616 20.4756 10.5534
1 15.4553 19.6819 10.5534
1 15.4609 20.4963 9.75958
1 14.6519 19.6953 9.75812
1 16.249 20.4756 10.5534
1 17.0427 19.6819 10.5534
1 17.0473 20.4736 9.74401
1 16.2415 19.6602 9.77517
1 17.8364 20.4756 10.5534
1 18.6301 19.6819 10.5534
1 18.6404 20.458 9.76124
1 17.8478 19.6851 9.75451
1 19.4238 20.4756 10.5534
1 20.2175 19.6819 10.5534
1 20.1994 20.4802 9.76878
1 19.4348 19.6759 9.75212
1 21.0112 20.4756 10.5534
1 21.8049 19.6819 10.5534
1 21.8215 20.4625 9.76624
1 20.994 19.6931 9.74338
1 22.5986 20.4756 10.5534
1 23.3923 19.6819 10.5534
1 23.3763 20.4693 9.75591
1 22.5835 19.6969 9.7453
1 24.186 20.4756 10.5534
1 24.9797 19.6819 10.5534
1 24.9837 20.4999 9.77068
1 24.1817 19.7034 9.76661
1 25.7734 20.4756 10.5534
1 26.5671 19.6819 10.5534
1 26.5438 20.4581 9.75671
1 25.7567 19.6553 9.78008
1 27.3608 20.4756 10.5534
1 28.1545 19.6819 10.5534
1 28.1307 20.4866 9.75458
1 27.3245 19.7038 9.76368
1 28.9482 20.4756 10.5534
1 29.7419 19.6819 10.5534
1 29.6634 20.4823 9.74193
1 28.9231 19.6738 9.75799
1 0.375 18.8882 10.5534
1 1.1687 18.0945 10.5534
1 1.19702 18.8977 9.74942
1 0.426925 18.1042 9.73821
1 1.9624 18.8882 10.5534
1 2.7561 18.0945 10.5534
1 2.77658 18.8873 9.75634
1 1.9871 18.1205 9.74521
1 3.5498 18.8882 10.5534
1 4.3435 18.0945 10.5534
1 4.35584 18.8908 9.7824
1 3.56603 18.1138 9.77073
1 5.1372 18.8882 10.5534
1 5.9309 18.0945 10.5534
1 5.93882 18.9006 9.76012
1 5.15436 18.1024 9.74867
1 6.7246 18.8882 10.5534
1 7.5183 18.0945 10.5534
1 7.5164 18.9103 9.75848
1 6.72593 18.1208 9.76031
1 8.31201 18.8882 10.5534
1 9.10571 18.0945 10.5534
1 9.10365 18.8897 9.76242
1 8.31576 18.0869 9.74957
1 9.89941 18.8882 10.5534
1 10.6931 18.0945 10.5534
1 10.6888 18.8926 9.76846
1 9.9191 18.1158 9.75187
1 11.4868 18.8882 10.5534
1 12.2805 18.0945 10.5534
1 12.2943 18.8726 9.79005
1 11.5006 18.1021 9.76364
1 13.0742 18.8882 10.5534
1 13.8679 18.0945 10.5534
1 13.882 18.9001 9.74822
1 13.0745 18.0952 9.76513
1 14.6616 18.8882 10.5534
1 15.4553 18.0945 10.5534
1 15.4716 18.8877 9.74575
1 14.6593 18.0792 9.76118
1 16.249 18.8882 10.5534
1 17.0427 18.0945 10.5534
1 17.0607 18.8687 9.75397
1 16.254 18.0992 9.73868
1 17.8364 18.8882 10.5534
1 18.6301 18.0945 10.5534
1 18.6374 18.8869 9.73979
1 17.8435 18.1174 9.73883
1 19.4238 18.8882 10.5534
1 20.2175 18.0945 10.5534
1 20.2043 18.8894 9.78522
1 19.4236 18.0734 9.76733
1 21.0112 18.8882 10.5534
1 21.8049 18.0945 10.5534
1 21.7839 18.8812 9.74598
1 20.9983 18.085 9.74971
1 22.5986 18.8882 10.5534
1 23.3923 18.0945 10.5534
1 23.3833 18.8722 9.76044
1 22.5634 18.0853 9.75362
1 24.186 18.8882 10.5534
1 24.9797 18.0945 10.5534
1 24.988 18.8865 9.73517
1 24.1792 18.0842 9.75721
1 25.7734 18.8882 10.5534
1 26.5671 18.0945 10.5534
1 26.5553 18.9084 9.76548
1 25.7579 18.0912 9.75715
1 27.3608 18.8882 10.5534
1 28.1545 18.0945 10.5534
1 28.1448 18.8848 9.7659
1 27.3457 18.1018 9.75954
1 28.9482 18.8882 10.5534
1 29.7419 18.0945 10.5534
1 29.6966 18.8812 9.7235
1 28.9186 18.0895 9.78473
1 0.375 17.3008 10.5534
1 1.1687 16.5071 10.5534
1 1.23694 17.3327 9.7666
1 0.455586 16.5322 9.7376
1 1.9624 17.3008 10.5534
1 2.7561 16.5071 10.5534
1 2.7541 17.3123 9.77698
1 1.9824 16.4895 9.75663
1 3.5498 17.3008 10.5534
1 4.3435 16.5071 10.5534
1 4.33526 17.3018 9.7776
1 3.55818 16.5125 9.76728
1 5.1372 17.3008 10.5534
1 5.9309 16.5071 10.5534
1 5.96722 17.3307 9.76352
1 5.14223 16.5206 9.77802
1 6.7246 17.3008 10.5534
1 7.5183 16.5071 10.5534
1 7.50983 17.3305 9.73475
1 6.73816 16.5236 9.76663
1 8.31201 17.3008 10.5534
1 9.10571 16.5071 10.5534
1 9.10631 17.3174 9.76304
1 8.32798 16.5268 9.75773
1 9.89941 17.3008 10.5534
1 10.6931 16.5071 10.5534
1 10.691 17.3144 9.75912
1 9.91783 16.5359 9.75012
1 11.4868 17.3008 10.5534
1 12.2805 16.5071 10.5534
1 12.2807 17.296 9.74492
1 11.4777 16.5105 9.74185
1 13.0742 17.3008 10.5534
1 13.8679 16.5071 10.5534
1 13.8662 17.3001 9.76313
1 13.0922 16.4999 9.77339
1 14.6616 17.3008 10.5534
1 15.4553 16.5071 10.5534
1 15.4691 17.3354 9.77464
1 14.6716 16.5046 9.76103
1 16.249 17.3008 10.5534
1 17.0427 16.5071 10.5534
1 17.0388 17.2885 9.76469
1 16.2498 16.513 9.75985
1 17.8364 17.3008 10.5534
1 18.6301 16.5071 10.5534
1 18.6293 17.2735 9.7653
1 17.8304 16.4896 9.75189
1 19.4238 17.3008 10.5534
1 20.2175 16.5071 10.5534
1 20.1875 17.3011 9.75094
1 19.4392 16.4973 9.75398
1 21.0112 17.3008 10.5534
1 21.8049 16.5071 10.5534
1 21.8079 17.2953 9.75626
1 21.0104 16.5221 9.78132
1 22.5986 17.3008 10.5534
1 23.3923 16.5071 10.5534
1 23.3732 17.2854 9.76066
1 22.5982 16.4983 9.74754
1 24.186 17.3008 10.5534
1 24.9797 16.5071 10.5534
1 24.9908 17.2983 9.78533
1 24.1935 16.5262 9.74498
1 25.7734 17.3008 10.5534
1 26.5671 16.5071 10.5534
1 26.5575 17.2832 9.764
1 25.7799 16.485 9.77874
1 27.3608 17.3008 10.5534
1 28.1545 16.5071 10.5534
1 28.1414 17.3014 9.75601
1 27.3836 16.5074 9.74596
1 28.9482 17.3008 10.5534
1 29.7419 16.5071 10.5534
1 29.6813 17.2881 9.73432
1 28.911 16.4944 9.75328
1 0.375 15.7134 10.5534
1 1.1687 14.9197 10.5534
1 1.17883 15.757 9.74853
1 0.439436 14.944 9.72536
1 1.9624 15.7134 10.5534
1 2.7561 14.9197 10.5534
1 2.77711 15.7052 9.78321
1 1.97016 14.937 9.75634
1 3.5498 15.7134 10.5534
1 4.3435 14.9197 10.5534
1 4.36173 15.72 9.7685
1 3.55952 14.9085 9.77308
1 5.1372 15.7134 10.5534
1 5.9309 14.9197 10.5534
1 5.94126 15.7145 9.74239
1 5.14295 14.9051 9.73978
1 6.7246 15.7134 10.5534
1 7.5183 14.9197 10.5534
1 7.5019 15.7416 9.75507
1 6.71873 14.9097 9.77266
1 8.31201 15.7134 10.5534
1 9.10571 14.9197 10.5534
1 9.0998 15.7181 9.72933
1 8.30748 14.9114 9.75061
1 9.89941 15.7134 10.5534
1 10.6931 14.9197 10.5534
1 10.669 15.7208 9.75664
1 9.9239 14.9061 9.74827
1 11.4868 15.7134 10.5534
1 12.2805 14.9197 10.5534
1 12.267 15.6945 9.76866
1 11.4892 14.9229 9.75158
1 13.0742 15.7134 10.5534
1 13.8679 14.9197 10.5534
1 13.8699 15.6968 9.75175
1 13.0833 14.8798 9.76426
1 14.6616 15.7134 10.5534
1 15.4553 14.9197 10.5534
1 15.4521 15.684 9.76705
1 14.6501 14.9145 9.76344
1 16.249 15.7134 10.5534
1 17.0427 14.9197 10.5534
1 17.0549 15.727 9.77063
1 16.252 14.9554 9.77683
1 17.8364 15.7134 10.5534
1 18.6301 14.9197 10.5534
1 18.6626 15.7114 9.75328
1 17.8526 14.9309 9.76209
1 19.4238 15.7134 10.5534
1 20.2175 14.9197 10.5534
1 20.1994 15.7256 9.76546
1 19.4247 14.9091 9.78543
1 21.0112 15.7134 10.5534
1 21.8049 14.9197 10.5534
1 21.807 15.7079 9.7554
1 20.9886 14.9092 9.76356
1 22.5986 15.7134 10.5534
1 23.3923 14.9197 10.5534
1 23.3884 15.7086 9.76754
1 22.5919 14.901 9.78283
1 24.186 15.7134 10.5534
1 24.9797 14.9197 10.5534
1 24.9668 15.711 9.78092
1 24.1683 14.9153 9.76973
1 25.7734 15.7134 10.5534
1 26.5671 14.9197 10.5534
1 26.5556 15.7015 9.74482
1 25.7984 14.9096 9.75555
1 27.3608 15.7134 10.5534
1 28.1545 14.9197 10.5534
1 28.1664 15.6775 9.74209
1 27.3554 14.9121 9.76572
1 28.9482 15.7134 10.5534
1 29.7419 14.9197 10.5534
1 29.6774 15.7153 9.71265
1 28.9277 14.9154 9.73453
1 0.375 14.126 10.5534
1 1.1687 13.3323 10.5534
1 1.19952 14.121 9.73251
1 0.437317 13.3402 9.74838
1 1.9624 14.126 10.5534
1 2.7561 13.3323 10.5534
1 2.7586 14.1305 9.75308
1 1.97919 13.3571 9.76159
1 3.5498 14.126 10.5534
1 4.3435 13.3323 10.5534
1 4.34057 14.1184 9.77203
1 3.55065 13.3612 9.75544
1 5.1372 14.126 10.5534
1 5.9309 13.3323 10.5534
1 5.94628 14.1233 9.74422
1 5.14033 13.3462 9.76034
1 6.7246 14.126 10.5534
1 7.5183 13.3323 10.5534
1 7.49762 14.1094 9.73562
1 6.71044 13.3469 9.74305
1 8.31201 14.126 10.5534
1 9.10571 13.3323 10.5534
1 9.10989 14.125 9.75969
1 8.30382 13.3252 9.76351
1 9.89941 14.126 10.5534
1 10.6931 13.3323 10.5534
1 10.7168 14.1212 9.73579
1 9.93634 13.339 9.74521
1 11.4868 14.126 10.5534
1 12.2805 13.3323 10.5534
1 12.263 14.1299 9.74925
1 11.4761 13.3247 9.76898
1 13.0742 14.126 10.5534
1 13.8679 13.3323 10.5534
1 13.8724 14.1247 9.77603
1 13.0653 13.3461 9.7631
1 14.6616 14.126 10.5534
1 15.4553 13.3323 10.5534
1 15.4758 14.118 9.74678
1 14.6846 13.3398 9.74649
1 16.249 14.126 10.5534
1 17.0427 13.3323 10.5534
1 17.0294 14.1351 9.76307
1 16.245 13.3191 9.76695
1 17.8364 14.126 10.5534
1 18.6301 13.3323 10.5534
1 18.6176 14.1251 9.75768
1 17.8166 13.349 9.75665
1 19.4238 14.126 10.5534
1 20.2175 13.3323 10.5534
1 20.1959 14.1086 9.76866
1 19.423 13.3183 9.75597
1 21.0112 14.126 10.5534
1 21.8049 13.3323 10.5534
1 21.7992 14.1427 9.76361
1 21.01 13.3352 9.77019
1 22.5986 14.126 10.5534
1 23.3923 13.3323 10.5534
1 23.391 14.1422 9.77725
1 22.5977 13.3446 9.74851
1 24.186 14.126 10.5534
1 24.9797 13.3323 10.5534
1 25 14.1221 9.76992
1 24.1767 13.3512 9.7486
1 25.7734 14.126 10.5534
1 26.5671 13.3323 10.5534
1 26.5823 14.1285 9.74086
1 25.7473 13.3219 9.77126
1 27.3608 14.126 10.5534
1 28.1545 13.3323 10.5534
1 28.1509 14.1128 9.76179
1 27.3646 13.3123 9.75498
1 28.9482 14.126 10.5534
1 29.7419 13.3323 10.5534
1 29.6654 14.141 9.72718
1 28.9173 13.334 9.73491
1 0.375 12.5386 10.5534
1 1.1687 11.7449 10.5534
1 1.20568 12.5177 9.74902
1 0.433019 11.7445 9.72693
1 1.9624 12.5386 10.5534
1 2.7561 11.7449 10.5534
1 2.78355 12.5317 9.74525
1 1.96072 11.7479 9.76572
1 3.5498 12.5386 10.5534
1 4.3435 11.7449 10.5534
1 4.34284 12.5393 9.76196
1 3.57544 11.7282 9.76184
1 5.1372 12.5386 10.5534
1 5.9309 11.7449 10.5534
1 5.91307 12.5322 9.76076
1 5.14461 11.7323 9.76651
1 6.7246 12.5386 10.5534
1 7.5183 11.7449 10.5534
1 7.53874 12.532 9.75364
1 6.72453 11.7465 9.75066
1 8.31201 12.5386 10.5534
1 9.10571 11.7449 10.5534
1 9.12509 12.544 9.75424
1 8.33749 11.7303 9.74274
1 9.89941 12.5386 10.5534
1 10.6931 11.7449 10.5534
1 10.6675 12.5334 9.76475
1 9.92687 11.7456 9.76349
1 11.4868 12.5386 10.5534
1 12.2805 11.7449 10.5534
1 12.2939 12.5272 9.78104
1 11.4839 11.7506 9.78061
1 13.0742 12.5386 10.5534
1 13.8679 11.7449 10.5534
1 13.8667 12.5491 9.75349
1 13.1128 11.7306 9.75849
1 14.6616 12.5386 10.5534
1 15.4553 11.7449 10.5534
1 15.4448 12.5388 9.77207
1 14.672 11.7297 9.76484
1 16.249 12.5386 10.5534
1 17.0427 11.7449 10.5534
1 17.071 12.5305 9.75609
1 16.2402 11.725 9.76924
1 17.8364 12.5386 10.5534
1 18.6301 11.7449 10.5534
1 18.6473 12.5301 9.75406
1 17.8586 11.7519 9.75759
1 19.4238 12.5386 10.5534
1 20.2175 11.7449 10.5534
1 20.2109 12.5335 9.73811
1 19.4323 11.7401 9.76394
1 21.0112 12.5386 10.5534
1 21.8049 11.7449 10.5534
1 21.8203 12.5068 9.75904
1 21.0265 11.7284 9.75835
1 22.5986 12.5386 10.5534
1 23.3923 11.7449 10.5534
1 23.3669 12.5444 9.76671
1 22.6108 11.7527 9.74981
1 24.186 12.5386 10.5534
1 24.9797 11.7449 10.5534
1 24.9352 12.5542 9.78026
1 24.1804 11.7793 9.75714
1 25.7734 12.5386 10.5534
1 26.5671 11.7449 10.5534
1 26.546 12.5459 9.75393
1 25.7645 11.7451 9.76121
1 27.3608 12.5386 10.5534
1 28.1545 11.7449 10.5534
1 28.1319 12.5345 9.73157
1 27.3604 11.7721 9.76176
1 28.9482 12.5386 10.5534
1 29.7419 11.7449 10.5534
1 29.6785 12.5394 9.73338
1 28.9188 11.7794 9.75946
1 0.375 10.9512 10.5534
1 1.1687 10.1575 10.5534
1 1.19484 10.9234 9.7583
1 0.410982 10.1619 9.73308
1 1.9624 10.9512 10.5534
1 2.7561 10.1575 10.5534
1 2.75005 10.9327 9.76792
1 1.99024 10.1397 9.74199
1 3.5498 10.9512 10.5534
1 4.3435 10.1575 10.5534
1 4.36264 10.9169 9.76544
1 3.53584 10.1505 9.76868
1 5.1372 10.9512 10.5534
1 5.9309 10.1575 10.5534
1 5.95169 10.9446 9.76168
1 5.17285 10.1648 9.77819
1 6.7246 10.9512 10.5534
1 7.5183 10.1575 10.5534
1 7.52707 10.9223 9.76614
1 6.71095 10.1518 9.75055
1 8.31201 10.9512 10.5534
1 9.10571 10.1575 10.5534
1 9.10077 10.9424 9.76756
1 8.31012 10.1415 9.74182
1 9.89941 10.9512 10.5534
1 10.6931 10.1575 10.5534
1 10.697 10.9617 9.78052
1 9.91851 10.1719 9.75112
1 11.4868 10.9512 10.5534
1 12.2805 10.1575 10.5534
1 12.2803 10.9365 9.75236
1 11.483 10.1245 9.75409
1 13.0742 10.9512 10.5534
1 13.8679 10.1575 10.5534
1 13.8726 10.9389 9.77178
1 13.0722 10.1614 9.75116
1 14.6616 10.9512 10.5534
1 15.4553 10.1575 10.5534
1 15.4422 10.9399 9.74314
1 14.6478 10.1346 9.75392
1 16.249 10.9512 10.5534
1 17.0427 10.1575 10.5534
1 17.0569 10.9638 9.77604
1 16.2519 10.1402 9.7296
1 17.8364 10.9512 10.5534
1 18.6301 10.1575 10.5534
1 18.625 10.9524 9.77225
1 17.8534 10.1704 9.75106
1 19.4238 10.9512 10.5534
1 20.2175 10.1575 10.5534
1 20.2136 10.9525 9.76001
1 19.4281 10.1676 9.76756
1 21.0112 10.9512 10.5534
1 21.8049 10.1575 10.5534
1 21.8412 10.9576 9.76427
1 21.0198 10.1663 9.75768
1 22.5986 10.9512 10.5534
1 23.3923 10.1575 10.5534
1 23.3957 10.9594 9.7621
1 22.6066 10.1717 9.76302
1 24.186 10.9512 10.5534
1 24.9797 10.1575 10.5534
1 24.985 10.9607 9.78422
1 24.2015 10.1703 9.78159
1 25.7734 10.9512 10.5534
1 26.5671 10.1575 10.5534
1 26.5704 10.9715 9.80762
1 25.7784 10.1691 9.74964
1 27.3608 10.9512 10.5534
1 28.1545 10.1575 10.5534
1 28.1414 10.9554 9.74915
1 27.3539 10.1657 9.7502
1 28.9482 10.9512 10.5534
1 29.7419 10.1575 10.5534
1 29.6778 10.9503 9.73482
1 28.9194 10.1449 9.74686
1 0.375 9.36379 10.5534
1 1.1687 8.57009 10.5534
1 1.2011 9.36693 9.72451
1 0.445066 8.5806 9.71181
1 1.9624 9.36379 10.5534
1 2.7561 8.57009 10.5534
1 2.74601 9.36054 9.73039
1 1.96359 8.56077 9.75769
1 3.5498 9.36379 10.5534
1 4.3435 8.57009 10.5534
1 4.34438 9.36891 9.76164
1 3.55841 8.57956 9.75238
1 5.1372 9.36379 10.5534
1 5.9309 8.57009 10.5534
1 5.92631 9.36573 9.7684
1 5.14193 8.55358 9.77221
1 6.7246 9.36379 10.5534
1 7.5183 8.57009 10.5534
1 7.50987 9.34961 9.76293
1 6.7318 8.56025 9.76024
1 8.31201 9.36379 10.5534
1 9.10571 8.57009 10.5534
1 9.09413 9.35106 9.77256
1 8.2991 8.55104 9.74055
1 9.89941 9.36379 10.5534
1 10.6931 8.57009 10.5534
1 10.6897 9.34376 9.77254
1 9.88824 8.56332 9.74829
1 11.4868 9.36379 10.5534
1 12.2805 8.57009 10.5534
1 12.2856 9.34463 9.75648
1 11.4742 8.60139 9.77242
1 13.0742 9.36379 10.5534
1 13.8679 8.57009 10.5534
1 13.8708 9.35731 9.77443
1 13.0821 8.58175 9.77667
1 14.6616 9.36379 10.5534
1 15.4553 8.57009 10.5534
1 15.4608 9.33106 9.74386
1 14.6556 8.58099 9.75851
1 16.249 9.36379 10.5534
1 17.0427 8.57009 10.5534
1 17.0432 9.35928 9.75021
1 16.2484 8.56646 9.78016
1 17.8364 9.36379 10.5534
1 18.6301 8.57009 10.5534
1 18.661 9.36446 9.77121
1 17.8483 8.56987 9.74364
1 19.4238 9.36379 10.5534
1 20.2175 8.57009 10.5534
1 20.2219 9.37789 9.75322
1 19.4238 8.56854 9.77452
1 21.0112 9.36379 10.5534
1 21.8049 8.57009 10.5534
1 21.8169 9.37283 9.77384
1 21.0145 8.59709 9.7759
1 22.5986 9.36379 10.5534
1 23.3923 8.57009 10.5534
1 23.3961 9.36843 9.7758
1 22.5947 8.56361 9.78361
1 24.186 9.36379 10.5534
1 24.9797 8.57009 10.5534
1 24.975 9.37661 9.76663
1 24.1824 8.57346 9.75924
1 25.7734 9.36379 10.5534
1 26.5671 8.57009 10.5534
1 26.5452 9.37627 9.7582
1 25.7693 8.56153 9.75723
1 27.3608 9.36379 10.5534
1 28.1545 8.57009 10.5534
1 28.1332 9.38094 9.7625
1 27.3504 8.58874 9.7717
1 28.9482 9.36379 10.5534
1 29.7419 8.57009 10.5534
1 29.6815 9.34129 9.73864
1 28.9221 8.54654 9.78526
1 0.375 7.77639 10.5534
1 1.1687 6.98268 10.5534
1 1.21202 7.76453 9.73182
1 0.458454 7.00436 9.73635
1 1.9624 7.77639 10.5534
1 2.7561 6.98268 10.5534
1 2.79617 7.77413 9.74537
1 1.98919 7.0136 9.74724
1 3.5498 7.77639 10.5534
1 4.3435 6.98268 10.5534
1 4.35954 7.76538 9.75496
1 3.56854 6.99002 9.72861
1 5.1372 7.77639 10.5534
1 5.9309 6.98268 10.5534
1 5.94236 7.74874 9.77681
1 5.13883 6.98518 9.74154
1 6.7246 7.77639 10.5534
1 7.5183 6.98268 10.5534
1 7.5465 7.7651 9.73384
1 6.71945 6.98437 9.7646
1 8.31201 7.77639 10.5534
1 9.10571 6.98268 10.5534
1 9.11619 7.78446 9.75338
1 8.31689 6.99591 9.7597
1 9.89941 7.77639 10.5534
1 10.6931 6.98268 10.5534
1 10.6867 7.78793 9.77305
1 9.91286 6.98598 9.76477
1 11.4868 7.77639 10.5534
1 12.2805 6.98268 10.5534
1 12.2786 7.77033 9.79279
1 11.4998 6.98524 9.74702
1 13.0742 7.77639 10.5534
1 13.8679 6.98268 10.5534
1 13.8593 7.78163 9.77301
1 13.0543 6.94917 9.74326
1 14.6616 7.77639 10.5534
1 15.4553 6.98268 10.5534
1 15.4639 7.76843 9.73699
1 14.6545 6.97365 9.77127
1 16.249 7.77639 10.5534
1 17.0427 6.98268 10.5534
1 17.0403 7.77722 9.74499
1 16.2592 6.99783 9.77552
1 17.8364 7.77639 10.5534
1 18.6301 6.98268 10.5534
1 18.6632 7.78164 9.74887
1 17.8516 6.99799 9.7668
1 19.4238 7.77639 10.5534
1 20.2175 6.98268 10.5534
1 20.2113 7.7957 9.77456
1 19.4379 6.99363 9.7677
1 21.0112 7.77639 10.5534
1 21.8049 6.98268 10.5534
1 21.809 7.75938 9.78188
1 21.0038 7.00252 9.76797
1 22.5986 7.77639 10.5534
1 23.3923 6.98268 10.5534
1 23.3945 7.78991 9.75987
1 22.6188 6.96252 9.76828
1 24.186 7.77639 10.5534
1 24.9797 6.98268 10.5534
1 24.9892 7.7848 9.76872
1 24.2168 6.98522 9.75852
1 25.7734 7.77639 10.5534
1 26.5671 6.98268 10.5534
1 26.5682 7.79381 9.766
1 25.7834 6.96469 9.76608
1 27.3608 7.77639 10.5534
1 28.1545 6.98268 10.5534
1 28.1338 7.77825 9.75127
1 27.3372 6.98499 9.76119
1 28.9482 7.77639 10.5534
1 29.7419 6.98268 10.5534
1 29.6814 7.78074 9.74802
1 28.9204 6.98592 9.74134
1 0.375 6.18898 10.5534
1 1.1687 5.39528 10.5534
1 1.21543 6.19433 9.75514
1 0.435259 5.39469 9.74302
1 1.9624 6.18898 10.5534
1 2.7561 5.39528 10.5534
1 2.78363 6.16165 9.76492
1 1.95627 5.40958 9.76653
1 3.5498 6.18898 10.5534
1 4.3435 5.39528 10.5534
1 4.36698 6.20486 9.76383
1 3.55962 5.39639 9.7841
1 5.1372 6.18898 10.5534
1 5.9309 5.39528 10.5534
1 5.93716 6.19336 9.73005
1 5.12348 5.39864 9.7822
1 6.7246 6.18898 10.5534
1 7.5183 5.39528 10.5534
1 7.49311 6.18613 9.7635
1 6.71739 5.41663 9.77786
1 8.31201 6.18898 10.5534
1 9.10571 5.39528 10.5534
1 9.1126 6.18873 9.78013
1 8.30357 5.40856 9.81083
1 9.89941 6.18898 10.5534