9376
Atoms. Timestep: 70000
1 0 3.55271e-15 19.4206
1 0.793701 29.2063 19.4206
1 0.817875 29.9596 18.5865
1 0.0662055 29.181 18.5927
1 1.5874 3.55271e-15 19.4206
1 2.3811 29.2063 19.4206
1 2.39275 29.9381 18.5736
1 1.57843 29.1915 18.6045
1 3.1748 3.55271e-15 19.4206
1 3.9685 29.2063 19.4206
1 3.96206 29.9139 18.6012
1 3.178 29.1779 18.6259
1 4.7622 3.55271e-15 19.4206
1 5.5559 29.2063 19.4206
1 5.54529 29.932 18.594
1 4.75903 29.1825 18.6279
1 6.3496 3.55271e-15 19.4206
1 7.1433 29.2063 19.4206
1 7.15257 29.94 18.5983
1 6.34543 29.1723 18.6484
1 7.93701 3.55271e-15 19.4206
1 8.73071 29.2063 19.4206
1 8.75464 29.9367 18.6174
1 7.92864 29.1607 18.6199
1 9.52441 3.55271e-15 19.4206
1 10.3181 29.2063 19.4206
1 10.3274 29.9308 18.5821
1 9.5526 29.1794 18.6516
1 11.1118 3.55271e-15 19.4206
1 11.9055 29.2063 19.4206
1 11.8955 29.953 18.6055
1 11.0801 29.1857 18.61
1 12.6992 3.55271e-15 19.4206
1 13.4929 29.2063 19.4206
1 13.482 29.9228 18.5781
1 12.7086 29.1655 18.6251
1 14.2866 3.55271e-15 19.4206
1 15.0803 29.2063 19.4206
1 15.0802 29.94 18.6001
1 14.277 29.1682 18.633
1 15.874 3.55271e-15 19.4206
1 16.6677 29.2063 19.4206
1 16.6684 29.9308 18.6049
1 15.8657 29.1755 18.6302
1 17.4614 3.55271e-15 19.4206
1 18.2551 29.2063 19.4206
1 18.2784 29.9628 18.6017
1 17.4943 29.1849 18.6237
1 19.0488 3.55271e-15 19.4206
1 19.8425 29.2063 19.4206
1 19.8004 29.944 18.5888
1 19.0584 29.1746 18.6328
1 20.6362 3.55271e-15 19.4206
1 21.4299 29.2063 19.4206
1 21.4098 29.914 18.5822
1 20.5868 29.2046 18.6108
1 22.2236 3.55271e-15 19.4206
1 23.0173 29.2063 19.4206
1 23.0251 29.9392 18.6054
1 22.2196 29.1949 18.5956
1 23.811 3.55271e-15 19.4206
1 24.6047 29.2063 19.4206
1 24.6078 29.9527 18.5949
1 23.816 29.1879 18.6153
1 25.3984 3.55271e-15 19.4206
1 26.1921 29.2063 19.4206
1 26.1638 29.9519 18.598
1 25.3733 29.1579 18.6131
1 26.9858 3.55271e-15 19.4206
1 27.7795 29.2063 19.4206
1 27.7474 29.909 18.5974
1 26.9486 29.1886 18.6257
1 28.5732 3.55271e-15 19.4206
1 29.3669 29.2063 19.4206
1 29.2993 29.9327 18.5722
1 28.5374 29.1983 18.6035
1 0 28.4126 19.4206
1 0.793701 27.6189 19.4206
1 0.810419 28.366 18.5998
1 0.0559871 27.6167 18.5772
1 1.5874 28.4126 19.4206
1 2.3811 27.6189 19.4206
1 2.42027 28.3952 18.6306
1 1.6328 27.6178 18.6403
1 3.1748 28.4126 19.4206
1 3.9685 27.6189 19.4206
1 3.98938 28.3921 18.6407
1 3.18282 27.6016 18.6531
1 4.7622 28.4126 19.4206
1 5.5559 27.6189 19.4206
1 5.54514 28.3973 18.6275
1 4.76675 27.6114 18.6162
1 6.3496 28.4126 19.4206
1 7.1433 27.6189 19.4206
1 7.13351 28.3688 18.632
1 6.35497 27.6102 18.6374
1 7.93701 28.4126 19.4206
1 8.73071 27.6189 19.4206
1 8.73097 28.4109 18.6316
1 7.93145 27.6069 18.6051
1 9.52441 28.4126 19.4206
1 10.3181 27.6189 19.4206
1 10.3276 28.3847 18.6355
1 9.5321 27.6064 18.6138
1 11.1118 28.4126 19.4206
1 11.9055 27.6189 19.4206
1 11.9134 28.3713 18.6242
1 11.1097 27.5787 18.6275
1 12.6992 28.4126 19.4206
1 13.4929 27.6189 19.4206
1 13.4797 28.3832 18.6018
1 12.6937 27.588 18.6334
1 14.2866 28.4126 19.4206
1 15.0803 27.6189 19.4206
1 15.0711 28.4086 18.6256
1 14.2685 27.6065 18.6137
1 15.874 28.4126 19.4206
1 16.6677 27.6189 19.4206
1 16.7036 28.3727 18.6403
1 15.8878 27.6206 18.6362
1 17.4614 28.4126 19.4206
1 18.2551 27.6189 19.4206
1 18.2686 28.3778 18.6399
1 17.4595 27.602 18.6059
1 19.0488 28.4126 19.4206
1 19.8425 27.6189 19.4206
1 19.8327 28.4043 18.6215
1 19.0346 27.6062 18.6203
1 20.6362 28.4126 19.4206
1 21.4299 27.6189 19.4206
1 21.4441 28.4222 18.6177
1 20.6554 27.6327 18.618
1 22.2236 28.4126 19.4206
1 23.0173 27.6189 19.4206
1 23.0088 28.3958 18.629
1 22.2288 27.6212 18.6282
1 23.811 28.4126 19.4206
1 24.6047 27.6189 19.4206
1 24.6014 28.3905 18.6191
1 23.8142 27.5928 18.6182
1 25.3984 28.4126 19.4206
1 26.1921 27.6189 19.4206
1 26.1741 28.4146 18.6531
1 25.4021 27.6075 18.6056
1 26.9858 28.4126 19.4206
1 27.7795 27.6189 19.4206
1 27.7655 28.3976 18.605
1 26.9706 27.6261 18.6088
1 28.5732 28.4126 19.4206
1 29.3669 27.6189 19.4206
1 29.2978 28.3939 18.6215
1 28.5389 27.5966 18.624
1 0 26.8252 19.4206
1 0.793701 26.0315 19.4206
1 0.821116 26.8215 18.607
1 0.0486425 26.041 18.6098
1 1.5874 26.8252 19.4206
1 2.3811 26.0315 19.4206
1 2.40144 26.8211 18.6258
1 1.61298 26.0174 18.6272
1 3.1748 26.8252 19.4206
1 3.9685 26.0315 19.4206
1 3.98252 26.7933 18.6614
1 3.15265 26.0021 18.6443
1 4.7622 26.8252 19.4206
1 5.5559 26.0315 19.4206
1 5.53828 26.8261 18.6279
1 4.74939 26.0123 18.6551
1 6.3496 26.8252 19.4206
1 7.1433 26.0315 19.4206
1 7.13844 26.8305 18.6191
1 6.34828 26.0166 18.6428
1 7.93701 26.8252 19.4206
1 8.73071 26.0315 19.4206
1 8.72904 26.8125 18.6177
1 7.94327 26.0167 18.6216
1 9.52441 26.8252 19.4206
1 10.3181 26.0315 19.4206
1 10.3207 26.7982 18.6177
1 9.52444 26.0316 18.6004
1 11.1118 26.8252 19.4206
1 11.9055 26.0315 19.4206
1 11.8783 26.8002 18.6363
1 11.1195 26.0348 18.6351
1 12.6992 26.8252 19.4206
1 13.4929 26.0315 19.4206
1 13.5077 26.8118 18.6231
1 12.6803 26.0336 18.6325
1 14.2866 26.8252 19.4206
1 15.0803 26.0315 19.4206
1 15.0966 26.8304 18.6397
1 14.2769 26.0039 18.6394
1 15.874 26.8252 19.4206
1 16.6677 26.0315 19.4206
1 16.6719 26.8195 18.6326
1 15.8667 26.0037 18.634
1 17.4614 26.8252 19.4206
1 18.2551 26.0315 19.4206
1 18.2528 26.844 18.6189
1 17.4473 26.0483 18.6041
1 19.0488 26.8252 19.4206
1 19.8425 26.0315 19.4206
1 19.8135 26.8386 18.6547
1 19.0433 26.0407 18.6528
1 20.6362 26.8252 19.4206
1 21.4299 26.0315 19.4206
1 21.4079 26.8225 18.649
1 20.6336 26.0537 18.6315
1 22.2236 26.8252 19.4206
1 23.0173 26.0315 19.4206
1 23.0319 26.8171 18.6536
1 22.2174 26.0337 18.6505
1 23.811 26.8252 19.4206
1 24.6047 26.0315 19.4206
1 24.5707 26.7903 18.5918
1 23.8124 26.0012 18.6304
1 25.3984 26.8252 19.4206
1 26.1921 26.0315 19.4206
1 26.1976 26.8226 18.6149
1 25.3715 26.0281 18.6201
1 26.9858 26.8252 19.4206
1 27.7795 26.0315 19.4206
1 27.7574 26.8034 18.6114
1 26.9548 26.0192 18.6313
1 28.5732 26.8252 19.4206
1 29.3669 26.0315 19.4206
1 29.3046 26.8397 18.5991
1 28.5417 26.0281 18.6072
1 0 25.2378 19.4206
1 0.793701 24.4441 19.4206
1 0.834772 25.2224 18.6086
1 0.0747835 24.4395 18.6023
1 1.5874 25.2378 19.4206
1 2.3811 24.4441 19.4206
1 2.38126 25.2272 18.6232
1 1.61124 24.4407 18.61
1 3.1748 25.2378 19.4206
1 3.9685 24.4441 19.4206
1 3.97148 25.2319 18.6163
1 3.17885 24.4351 18.6221
1 4.7622 25.2378 19.4206
1 5.5559 24.4441 19.4206
1 5.5713 25.2191 18.6157
1 4.77514 24.4408 18.6155
1 6.3496 25.2378 19.4206
1 7.1433 24.4441 19.4206
1 7.15789 25.2254 18.6356
1 6.34201 24.4598 18.6115
1 7.93701 25.2378 19.4206
1 8.73071 24.4441 19.4206
1 8.72654 25.2459 18.6173
1 7.94638 24.4371 18.6045
1 9.52441 25.2378 19.4206
1 10.3181 24.4441 19.4206
1 10.3251 25.2651 18.6393
1 9.51897 24.4454 18.6372
1 11.1118 25.2378 19.4206
1 11.9055 24.4441 19.4206
1 11.9161 25.25 18.6085
1 11.1102 24.4687 18.6123
1 12.6992 25.2378 19.4206
1 13.4929 24.4441 19.4206
1 13.4826 25.2502 18.6215
1 12.6858 24.4423 18.6233
1 14.2866 25.2378 19.4206
1 15.0803 24.4441 19.4206
1 15.0857 25.2331 18.6127
1 14.2958 24.4507 18.6054
1 15.874 25.2378 19.4206
1 16.6677 24.4441 19.4206
1 16.6633 25.1967 18.6264
1 15.8685 24.4609 18.6337
1 17.4614 25.2378 19.4206
1 18.2551 24.4441 19.4206
1 18.2643 25.2444 18.6255
1 17.4624 24.4315 18.6239
1 19.0488 25.2378 19.4206
1 19.8425 24.4441 19.4206
1 19.8425 25.2345 18.6264
1 19.04 24.4335 18.604
1 20.6362 25.2378 19.4206
1 21.4299 24.4441 19.4206
1 21.4234 25.2558 18.6428
1 20.6426 24.4572 18.6034
1 22.2236 25.2378 19.4206
1 23.0173 24.4441 19.4206
1 23.0134 25.2344 18.64
1 22.1994 24.4427 18.6406
1 23.811 25.2378 19.4206
1 24.6047 24.4441 19.4206
1 24.6029 25.2406 18.6398
1 23.8242 24.4455 18.627
1 25.3984 25.2378 19.4206
1 26.1921 24.4441 19.4206
1 26.2031 25.2507 18.6521
1 25.4177 24.4596 18.6348
1 26.9858 25.2378 19.4206
1 27.7795 24.4441 19.4206
1 27.7693 25.2388 18.6495
1 26.9771 24.4545 18.6304
1 28.5732 25.2378 19.4206
1 29.3669 24.4441 19.4206
1 29.3065 25.2195 18.6116
1 28.5289 24.4335 18.6169
1 0 23.6504 19.4206
1 0.793701 22.8567 19.4206
1 0.818309 23.6629 18.6113
1 0.0733046 22.8659 18.5897
1 1.5874 23.6504 19.4206
1 2.3811 22.8567 19.4206
1 2.38486 23.6424 18.6242
1 1.59024 22.8674 18.6066
1 3.1748 23.6504 19.4206
1 3.9685 22.8567 19.4206
1 3.97548 23.6568 18.6248
1 3.18874 22.8734 18.6371
1 4.7622 23.6504 19.4206
1 5.5559 22.8567 19.4206
1 5.5567 23.6656 18.6125
1 4.77931 22.8578 18.6286
1 6.3496 23.6504 19.4206
1 7.1433 22.8567 19.4206
1 7.1541 23.6477 18.5963
1 6.3649 22.8521 18.6126
1 7.93701 23.6504 19.4206
1 8.73071 22.8567 19.4206
1 8.73847 23.651 18.6354
1 7.94438 22.8609 18.6375
1 9.52441 23.6504 19.4206
1 10.3181 22.8567 19.4206
1 10.3253 23.661 18.6215
1 9.54104 22.8752 18.6332
1 11.1118 23.6504 19.4206
1 11.9055 22.8567 19.4206
1 11.898 23.6635 18.6084
1 11.1016 22.8655 18.6357
1 12.6992 23.6504 19.4206
1 13.4929 22.8567 19.4206
1 13.4834 23.6568 18.6103
1 12.6972 22.8861 18.6512
1 14.2866 23.6504 19.4206
1 15.0803 22.8567 19.4206
1 15.0734 23.6332 18.6043
1 14.3044 22.8561 18.6383
1 15.874 23.6504 19.4206
1 16.6677 22.8567 19.4206
1 16.6605 23.6623 18.6243
1 15.8939 22.8404 18.6146
1 17.4614 23.6504 19.4206
1 18.2551 22.8567 19.4206
1 18.2575 23.642 18.6006
1 17.46 22.858 18.6422
1 19.0488 23.6504 19.4206
1 19.8425 22.8567 19.4206
1 19.8495 23.6733 18.629
1 19.0408 22.878 18.6173
1 20.6362 23.6504 19.4206
1 21.4299 22.8567 19.4206
1 21.4159 23.6557 18.5928
1 20.6373 22.8597 18.631
1 22.2236 23.6504 19.4206
1 23.0173 22.8567 19.4206
1 23.0423 23.6536 18.6378
1 22.2036 22.8654 18.6241
1 23.811 23.6504 19.4206
1 24.6047 22.8567 19.4206
1 24.5898 23.6485 18.6137
1 23.8269 22.8514 18.6315
1 25.3984 23.6504 19.4206
1 26.1921 22.8567 19.4206
1 26.1856 23.6498 18.6151
1 25.3896 22.8747 18.6234
1 26.9858 23.6504 19.4206
1 27.7795 22.8567 19.4206
1 27.7661 23.6405 18.6442
1 26.9663 22.8455 18.6086
1 28.5732 23.6504 19.4206
1 29.3669 22.8567 19.4206
1 29.3248 23.6623 18.5928
1 28.5791 22.8679 18.6153
1 0 22.063 19.4206
1 0.793701 21.2693 19.4206
1 0.823696 22.082 18.5969
1 0.0706273 21.2947 18.5733
1 1.5874 22.063 19.4206
1 2.3811 21.2693 19.4206
1 2.39521 22.0556 18.6259
1 1.58422 21.2932 18.6215
1 3.1748 22.063 19.4206
1 3.9685 21.2693 19.4206
1 3.97718 22.0751 18.615
1 3.1691 21.292 18.6274
1 4.7622 22.063 19.4206
1 5.5559 21.2693 19.4206
1 5.56908 22.0535 18.6196
1 4.76888 21.2899 18.6463
1 6.3496 22.063 19.4206
1 7.1433 21.2693 19.4206
1 7.16593 22.0768 18.6062
1 6.37075 21.2643 18.6215
1 7.93701 22.063 19.4206
1 8.73071 21.2693 19.4206
1 8.73496 22.0538 18.6221
1 7.93714 21.2384 18.627
1 9.52441 22.063 19.4206
1 10.3181 21.2693 19.4206
1 10.3253 22.0652 18.6602
1 9.53737 21.2715 18.6278
1 11.1118 22.063 19.4206
1 11.9055 21.2693 19.4206
1 11.8857 22.0589 18.6173
1 11.1038 21.2603 18.6723
1 12.6992 22.063 19.4206
1 13.4929 21.2693 19.4206
1 13.4944 22.0786 18.6319
1 12.7355 21.2614 18.6236
1 14.2866 22.063 19.4206
1 15.0803 21.2693 19.4206
1 15.0701 22.0655 18.6427
1 14.2755 21.2782 18.5914
1 15.874 22.063 19.4206
1 16.6677 21.2693 19.4206
1 16.6839 22.042 18.6069
1 15.8627 21.2586 18.618
1 17.4614 22.063 19.4206
1 18.2551 21.2693 19.4206
1 18.2236 22.0779 18.6109
1 17.4714 21.2476 18.6273
1 19.0488 22.063 19.4206
1 19.8425 21.2693 19.4206
1 19.8506 22.0581 18.6319
1 19.0433 21.2794 18.6422
1 20.6362 22.063 19.4206
1 21.4299 21.2693 19.4206
1 21.4284 22.0645 18.6162
1 20.6367 21.2625 18.6246
1 22.2236 22.063 19.4206
1 23.0173 21.2693 19.4206
1 22.9815 22.0839 18.6243
1 22.222 21.2776 18.6384
1 23.811 22.063 19.4206
1 24.6047 21.2693 19.4206
1 24.6311 22.0587 18.6235
1 23.7928 21.2974 18.637
1 25.3984 22.063 19.4206
1 26.1921 21.2693 19.4206
1 26.1739 22.0729 18.6298
1 25.4156 21.2467 18.6291
1 26.9858 22.063 19.4206
1 27.7795 21.2693 19.4206
1 27.7819 22.0587 18.6374
1 26.9658 21.277 18.65
1 28.5732 22.063 19.4206
1 29.3669 21.2693 19.4206
1 29.316 22.0807 18.5973
1 28.581 21.2755 18.6224
1 0 20.4756 19.4206
1 0.793701 19.6819 19.4206
1 0.782421 20.48 18.6167
1 0.0316397 19.6722 18.6098
1 1.5874 20.4756 19.4206
1 2.3811 19.6819 19.4206
1 2.39038 20.4823 18.6299
1 1.5935 19.6837 18.6368
1 3.1748 20.4756 19.4206
1 3.9685 19.6819 19.4206
1 3.94685 20.4977 18.6234
1 3.19389 19.6768 18.6432
1 4.7622 20.4756 19.4206
1 5.5559 19.6819 19.4206
1 5.54728 20.4903 18.6326
1 4.78005 19.6755 18.6365
1 6.3496 20.4756 19.4206
1 7.1433 19.6819 19.4206
1 7.11811 20.4485 18.6133
1 6.36271 19.6858 18.5894
1 7.93701 20.4756 19.4206
1 8.73071 19.6819 19.4206
1 8.73393 20.4635 18.6392
1 7.92276 19.6595 18.6295
1 9.52441 20.4756 19.4206
1 10.3181 19.6819 19.4206
1 10.3352 20.452 18.6409
1 9.52555 19.6588 18.6286
1 11.1118 20.4756 19.4206
1 11.9055 19.6819 19.4206
1 11.9262 20.4807 18.6251
1 11.1154 19.6894 18.6051
1 12.6992 20.4756 19.4206
1 13.4929 19.6819 19.4206
1 13.5078 20.4579 18.6144
1 12.6818 19.6724 18.6127
1 14.2866 20.4756 19.4206
1 15.0803 19.6819 19.4206
1 15.0591 20.4879 18.6196
1 14.2929 19.6805 18.6007
1 15.874 20.4756 19.4206
1 16.6677 19.6819 19.4206
1 16.6692 20.4755 18.6216
1 15.8847 19.6989 18.6218
1 17.4614 20.4756 19.4206
1 18.2551 19.6819 19.4206
1 18.2645 20.4493 18.6355
1 17.4598 19.6831 18.6128
1 19.0488 20.4756 19.4206
1 19.8425 19.6819 19.4206
1 19.8401 20.4677 18.6419
1 19.0704 19.6369 18.6259
1 20.6362 20.4756 19.4206
1 21.4299 19.6819 19.4206
1 21.4295 20.4607 18.6255
1 20.6477 19.6525 18.6212
1 22.2236 20.4756 19.4206
1 23.0173 19.6819 19.4206
1 23.0281 20.4921 18.628
1 22.2346 19.6675 18.6201
1 23.811 20.4756 19.4206
1 24.6047 19.6819 19.4206
1 24.598 20.4795 18.6216
1 23.8074 19.684 18.6391
1 25.3984 20.4756 19.4206
1 26.1921 19.6819 19.4206
1 26.1805 20.4709 18.6407
1 25.4 19.6574 18.6457
1 26.9858 20.4756 19.4206
1 27.7795 19.6819 19.4206
1 27.7602 20.4836 18.6226
1 26.9617 19.6764 18.6306
1 28.5732 20.4756 19.4206
1 29.3669 19.6819 19.4206
1 29.2788 20.4727 18.5725
1 28.5396 19.6957 18.6023
1 0 18.8882 19.4206
1 0.793701 18.0945 19.4206
1 0.836823 18.9013 18.6214
1 0.0522506 18.123 18.5918
1 1.5874 18.8882 19.4206
1 2.3811 18.0945 19.4206
1 2.41842 18.8903 18.6311
1 1.6117 18.1012 18.6161
1 3.1748 18.8882 19.4206
1 3.9685 18.0945 19.4206
1 3.97374 18.8708 18.6586
1 3.17701 18.0886 18.6054
1 4.7622 18.8882 19.4206
1 5.5559 18.0945 19.4206
1 5.56514 18.8714 18.6375
1 4.76707 18.0856 18.6071
1 6.3496 18.8882 19.4206
1 7.1433 18.0945 19.4206
1 7.13133 18.877 18.6246
1 6.37077 18.0847 18.6339
1 7.93701 18.8882 19.4206
1 8.73071 18.0945 19.4206
1 8.73166 18.871 18.6234
1 7.93629 18.0839 18.6171
1 9.52441 18.8882 19.4206
1 10.3181 18.0945 19.4206
1 10.3237 18.8827 18.6238
1 9.53319 18.0977 18.6326
1 11.1118 18.8882 19.4206
1 11.9055 18.0945 19.4206
1 11.9214 18.8681 18.6402
1 11.0917 18.0925 18.6209
1 12.6992 18.8882 19.4206
1 13.4929 18.0945 19.4206
1 13.4707 18.8729 18.6065
1 12.6997 18.0848 18.6095
1 14.2866 18.8882 19.4206
1 15.0803 18.0945 19.4206
1 15.0861 18.8846 18.6411
1 14.2767 18.0925 18.6031
1 15.874 18.8882 19.4206
1 16.6677 18.0945 19.4206
1 16.6761 18.8861 18.6502
1 15.8742 18.089 18.6273
1 17.4614 18.8882 19.4206
1 18.2551 18.0945 19.4206
1 18.2422 18.8831 18.6325
1 17.4721 18.1032 18.6363
1 19.0488 18.8882 19.4206
1 19.8425 18.0945 19.4206
1 19.8489 18.8819 18.6277
1 19.0543 18.0934 18.6398
1 20.6362 18.8882 19.4206
1 21.4299 18.0945 19.4206
1 21.4207 18.8991 18.6297
1 20.6418 18.0931 18.6196
1 22.2236 18.8882 19.4206
1 23.0173 18.0945 19.4206
1 23.0255 18.8846 18.6363
1 22.2238 18.1032 18.6216
1 23.811 18.8882 19.4206
1 24.6047 18.0945 19.4206
1 24.5957 18.8738 18.6122
1 23.787 18.0876 18.6122
1 25.3984 18.8882 19.4206
1 26.1921 18.0945 19.4206
1 26.1948 18.8859 18.6392
1 25.3925 18.0818 18.6251
1 26.9858 18.8882 19.4206
1 27.7795 18.0945 19.4206
1 27.7638 18.9006 18.6368
1 27.0064 18.1056 18.6227
1 28.5732 18.8882 19.4206
1 29.3669 18.0945 19.4206
1 29.2748 18.8911 18.58
1 28.5183 18.1048 18.6286
1 0 17.3008 19.4206
1 0.793701 16.5071 19.4206
1 0.804902 17.2972 18.6113
1 0.0898644 16.5045 18.5928
1 1.5874 17.3008 19.4206
1 2.3811 16.5071 19.4206
1 2.40217 17.2812 18.6125
1 1.58923 16.513 18.6172
1 3.1748 17.3008 19.4206
1 3.9685 16.5071 19.4206
1 3.96316 17.2946 18.6409
1 3.16308 16.5189 18.6175
1 4.7622 17.3008 19.4206
1 5.5559 16.5071 19.4206
1 5.56464 17.279 18.6643
1 4.73271 16.5026 18.614
1 6.3496 17.3008 19.4206
1 7.1433 16.5071 19.4206
1 7.16754 17.2826 18.6241
1 6.33891 16.521 18.6331
1 7.93701 17.3008 19.4206
1 8.73071 16.5071 19.4206
1 8.74657 17.2949 18.6323
1 7.94064 16.4826 18.6092
1 9.52441 17.3008 19.4206
1 10.3181 16.5071 19.4206
1 10.3402 17.2944 18.6347
1 9.50371 16.5125 18.6262
1 11.1118 17.3008 19.4206
1 11.9055 16.5071 19.4206
1 11.8897 17.3165 18.6234
1 11.1387 16.4973 18.6173
1 12.6992 17.3008 19.4206
1 13.4929 16.5071 19.4206
1 13.485 17.2933 18.6263
1 12.6848 16.5035 18.6327
1 14.2866 17.3008 19.4206
1 15.0803 16.5071 19.4206
1 15.052 17.3081 18.6447
1 14.2846 16.4777 18.6311
1 15.874 17.3008 19.4206
1 16.6677 16.5071 19.4206
1 16.6563 17.2746 18.6201
1 15.8669 16.5194 18.6193
1 17.4614 17.3008 19.4206
1 18.2551 16.5071 19.4206
1 18.2542 17.2682 18.6199
1 17.4757 16.5305 18.6257
1 19.0488 17.3008 19.4206
1 19.8425 16.5071 19.4206
1 19.844 17.313 18.6294
1 19.0322 16.5075 18.6638
1 20.6362 17.3008 19.4206
1 21.4299 16.5071 19.4206
1 21.4312 17.2894 18.6189
1 20.6135 16.505 18.6154
1 22.2236 17.3008 19.4206
1 23.0173 16.5071 19.4206
1 23.0016 17.2901 18.6262
1 22.2217 16.4745 18.6062
1 23.811 17.3008 19.4206
1 24.6047 16.5071 19.4206
1 24.5822 17.2963 18.6099
1 23.7907 16.4924 18.6156
1 25.3984 17.3008 19.4206
1 26.1921 16.5071 19.4206
1 26.1843 17.3171 18.5953
1 25.4079 16.4865 18.6463
1 26.9858 17.3008 19.4206
1 27.7795 16.5071 19.4206
1 27.7499 17.2743 18.6261
1 26.9603 16.4946 18.6403
1 28.5732 17.3008 19.4206
1 29.3669 16.5071 19.4206
1 29.2962 17.304 18.6122
1 28.5523 16.4878 18.6404
1 0 15.7134 19.4206
1 0.793701 14.9197 19.4206
1 0.826611 15.7315 18.6136
1 0.063394 14.9235 18.5894
1 1.5874 15.7134 19.4206
1 2.3811 14.9197 19.4206
1 2.4098 15.746 18.6266
1 1.59975 14.8947 18.6169
1 3.1748 15.7134 19.4206
1 3.9685 14.9197 19.4206
1 3.93905 15.7308 18.6378
1 3.18165 14.9008 18.6461
1 4.7622 15.7134 19.4206
1 5.5559 14.9197 19.4206
1 5.52142 15.7418 18.6123
1 4.75123 14.9322 18.6125
1 6.3496 15.7134 19.4206
1 7.1433 14.9197 19.4206
1 7.14316 15.7145 18.6208
1 6.3545 14.9187 18.6219
1 7.93701 15.7134 19.4206
1 8.73071 14.9197 19.4206
1 8.75595 15.684 18.6581
1 7.94485 14.9297 18.6175
1 9.52441 15.7134 19.4206
1 10.3181 14.9197 19.4206
1 10.313 15.6973 18.6468
1 9.53541 14.9304 18.6258
1 11.1118 15.7134 19.4206
1 11.9055 14.9197 19.4206
1 11.9051 15.6945 18.6191
1 11.1216 14.9346 18.6368
1 12.6992 15.7134 19.4206
1 13.4929 14.9197 19.4206
1 13.4796 15.7 18.6534
1 12.7034 14.9099 18.5862
1 14.2866 15.7134 19.4206
1 15.0803 14.9197 19.4206
1 15.1017 15.6925 18.6265
1 14.2932 14.9389 18.6176
1 15.874 15.7134 19.4206
1 16.6677 14.9197 19.4206
1 16.6776 15.6957 18.6248
1 15.866 14.9054 18.6231
1 17.4614 15.7134 19.4206
1 18.2551 14.9197 19.4206
1 18.2477 15.7012 18.6388
1 17.448 14.9015 18.6426
1 19.0488 15.7134 19.4206
1 19.8425 14.9197 19.4206
1 19.848 15.6881 18.6434
1 19.0428 14.9244 18.6308
1 20.6362 15.7134 19.4206
1 21.4299 14.9197 19.4206
1 21.4281 15.7055 18.6276
1 20.662 14.9062 18.6109
1 22.2236 15.7134 19.4206
1 23.0173 14.9197 19.4206
1 23.0024 15.7154 18.6206
1 22.2188 14.9128 18.6199
1 23.811 15.7134 19.4206
1 24.6047 14.9197 19.4206
1 24.6149 15.6923 18.622
1 23.8116 14.91 18.6508
1 25.3984 15.7134 19.4206
1 26.1921 14.9197 19.4206
1 26.1754 15.7159 18.6264
1 25.424 14.9282 18.6354
1 26.9858 15.7134 19.4206
1 27.7795 14.9197 19.4206
1 27.7518 15.695 18.6178
1 26.9686 14.9306 18.6308
1 28.5732 15.7134 19.4206
1 29.3669 14.9197 19.4206
1 29.2899 15.7375 18.6176
1 28.5864 14.9213 18.6375
1 0 14.126 19.4206
1 0.793701 13.3323 19.4206
1 0.801862 14.1171 18.608
1 0.0478703 13.2874 18.5782
1 1.5874 14.126 19.4206
1 2.3811 13.3323 19.4206
1 2.36468 14.1221 18.6428
1 1.58633 13.3174 18.618
1 3.1748 14.126 19.4206
1 3.9685 13.3323 19.4206
1 3.9463 14.1481 18.6245
1 3.20056 13.3335 18.6266
1 4.7622 14.126 19.4206
1 5.5559 13.3323 19.4206
1 5.54508 14.1168 18.612
1 4.76546 13.3418 18.5998
1 6.3496 14.126 19.4206
1 7.1433 13.3323 19.4206
1 7.12769 14.1115 18.608
1 6.35324 13.3529 18.6015
1 7.93701 14.126 19.4206
1 8.73071 13.3323 19.4206
1 8.73582 14.1343 18.6261
1 7.91451 13.3487 18.6181
1 9.52441 14.126 19.4206
1 10.3181 13.3323 19.4206
1 10.3291 14.115 18.6258
1 9.52924 13.3295 18.6329
1 11.1118 14.126 19.4206
1 11.9055 13.3323 19.4206
1 11.9205 14.1425 18.6306
1 11.1244 13.3217 18.631
1 12.6992 14.126 19.4206
1 13.4929 13.3323 19.4206
1 13.5064 14.1165 18.6346
1 12.694 13.3374 18.6271
1 14.2866 14.126 19.4206
1 15.0803 13.3323 19.4206
1 15.0766 14.1215 18.5993
1 14.3009 13.3261 18.62
1 15.874 14.126 19.4206
1 16.6677 13.3323 19.4206
1 16.6371 14.1139 18.6441
1 15.8895 13.3125 18.6225
1 17.4614 14.126 19.4206
1 18.2551 13.3323 19.4206
1 18.2405 14.1276 18.6217
1 17.4668 13.3381 18.6237
1 19.0488 14.126 19.4206
1 19.8425 13.3323 19.4206
1 19.8442 14.116 18.6314
1 19.046 13.3324 18.635
1 20.6362 14.126 19.4206
1 21.4299 13.3323 19.4206
1 21.4189 14.1363 18.6456
1 20.6491 13.3383 18.6482
1 22.2236 14.126 19.4206
1 23.0173 13.3323 19.4206
1 23.0139 14.1496 18.6518
1 22.2153 13.3817 18.6324
1 23.811 14.126 19.4206
1 24.6047 13.3323 19.4206
1 24.6138 14.1395 18.6072
1 23.8237 13.3455 18.625
1 25.3984 14.126 19.4206
1 26.1921 13.3323 19.4206
1 26.1906 14.1251 18.6269
1 25.4009 13.3143 18.6206
1 26.9858 14.126 19.4206
1 27.7795 13.3323 19.4206
1 27.7933 14.1271 18.6189
1 26.9918 13.3274 18.6242
1 28.5732 14.126 19.4206
1 29.3669 13.3323 19.4206
1 29.3065 14.1069 18.5908
1 28.5485 13.3338 18.6312
1 0 12.5386 19.4206
1 0.793701 11.7449 19.4206
1 0.827411 12.5364 18.6327
1 0.0627005 11.7384 18.6235
1 1.5874 12.5386 19.4206
1 2.3811 11.7449 19.4206
1 2.4054 12.543 18.646
1 1.62218 11.7465 18.6429
1 3.1748 12.5386 19.4206
1 3.9685 11.7449 19.4206
1 3.96565 12.5585 18.6208
1 3.17885 11.737 18.6012
1 4.7622 12.5386 19.4206
1 5.5559 11.7449 19.4206
1 5.55807 12.575 18.6188
1 4.76341 11.7488 18.6341
1 6.3496 12.5386 19.4206
1 7.1433 11.7449 19.4206
1 7.13253 12.5537 18.5988
1 6.36329 11.7387 18.6308
1 7.93701 12.5386 19.4206
1 8.73071 11.7449 19.4206
1 8.71472 12.5603 18.6277
1 7.94738 11.7677 18.6466
1 9.52441 12.5386 19.4206
1 10.3181 11.7449 19.4206
1 10.3041 12.546 18.635
1 9.51132 11.7386 18.6238
1 11.1118 12.5386 19.4206
1 11.9055 11.7449 19.4206
1 11.9088 12.517 18.6289
1 11.1099 11.7665 18.6124
1 12.6992 12.5386 19.4206
1 13.4929 11.7449 19.4206
1 13.5263 12.5408 18.6095
1 12.6991 11.7502 18.6065
1 14.2866 12.5386 19.4206
1 15.0803 11.7449 19.4206
1 15.0899 12.5173 18.622
1 14.2861 11.7631 18.6275
1 15.874 12.5386 19.4206
1 16.6677 11.7449 19.4206
1 16.6447 12.525 18.6089
1 15.8842 11.7455 18.5995
1 17.4614 12.5386 19.4206
1 18.2551 11.7449 19.4206
1 18.2643 12.542 18.6298
1 17.4529 11.7437 18.6181
1 19.0488 12.5386 19.4206
1 19.8425 11.7449 19.4206
1 19.8541 12.5437 18.6343
1 19.0573 11.7485 18.6178
1 20.6362 12.5386 19.4206
1 21.4299 11.7449 19.4206
1 21.4386 12.5629 18.632
1 20.6364 11.7644 18.6336
1 22.2236 12.5386 19.4206
1 23.0173 11.7449 19.4206
1 23.0126 12.5626 18.6231
1 22.2295 11.7754 18.6531
1 23.811 12.5386 19.4206
1 24.6047 11.7449 19.4206
1 24.6182 12.5222 18.6602
1 23.7994 11.7621 18.6263
1 25.3984 12.5386 19.4206
1 26.1921 11.7449 19.4206
1 26.2012 12.5113 18.6022
1 25.4185 11.7347 18.6267
1 26.9858 12.5386 19.4206
1 27.7795 11.7449 19.4206
1 27.7577 12.5304 18.5978
1 26.9748 11.7371 18.6242
1 28.5732 12.5386 19.4206
1 29.3669 11.7449 19.4206
1 29.2661 12.5219 18.6033
1 28.513 11.727 18.6101
1 0 10.9512 19.4206
1 0.793701 10.1575 19.4206
1 0.818578 10.9479 18.6268
1 0.0526815 10.1724 18.5874
1 1.5874 10.9512 19.4206
1 2.3811 10.1575 19.4206
1 2.36995 10.9278 18.6614
1 1.61577 10.1583 18.6336
1 3.1748 10.9512 19.4206
1 3.9685 10.1575 19.4206
1 3.97123 10.9248 18.6541
1 3.1936 10.1611 18.6377
1 4.7622 10.9512 19.4206
1 5.5559 10.1575 19.4206
1 5.54898 10.9539 18.6256
1 4.77484 10.1467 18.6152
1 6.3496 10.9512 19.4206
1 7.1433 10.1575 19.4206
1 7.15531 10.9528 18.6144
1 6.36631 10.1667 18.6013
1 7.93701 10.9512 19.4206
1 8.73071 10.1575 19.4206
1 8.73536 10.967 18.6181
1 7.95597 10.1665 18.6384
1 9.52441 10.9512 19.4206
1 10.3181 10.1575 19.4206
1 10.3206 10.961 18.6273
1 9.53448 10.1612 18.6287
1 11.1118 10.9512 19.4206
1 11.9055 10.1575 19.4206
1 11.8986 10.959 18.6153
1 11.1298 10.1651 18.6301
1 12.6992 10.9512 19.4206
1 13.4929 10.1575 19.4206
1 13.4879 10.95 18.6372
1 12.7085 10.1613 18.6329
1 14.2866 10.9512 19.4206
1 15.0803 10.1575 19.4206
1 15.0985 10.9592 18.6473
1 14.2732 10.1653 18.638
1 15.874 10.9512 19.4206
1 16.6677 10.1575 19.4206
1 16.679 10.9514 18.6196
1 15.8927 10.1606 18.6403
1 17.4614 10.9512 19.4206
1 18.2551 10.1575 19.4206
1 18.2854 10.9507 18.6365
1 17.4574 10.1417 18.6337
1 19.0488 10.9512 19.4206
1 19.8425 10.1575 19.4206
1 19.8439 10.9504 18.6189
1 19.076 10.1683 18.6129
1 20.6362 10.9512 19.4206
1 21.4299 10.1575 19.4206
1 21.4365 10.964 18.6438
1 20.6209 10.172 18.6234
1 22.2236 10.9512 19.4206
1 23.0173 10.1575 19.4206
1 23.0374 10.9731 18.6554
1 22.2203 10.197 18.682
1 23.811 10.9512 19.4206
1 24.6047 10.1575 19.4206
1 24.5896 10.9495 18.6287
1 23.8227 10.149 18.6387
1 25.3984 10.9512 19.4206
1 26.1921 10.1575 19.4206
1 26.2147 10.9353 18.6105
1 25.3762 10.1534 18.6407
1 26.9858 10.9512 19.4206
1 27.7795 10.1575 19.4206
1 27.743 10.9321 18.6409
1 26.9665 10.1207 18.6275
1 28.5732 10.9512 19.4206
1 29.3669 10.1575 19.4206
1 29.3019 10.9557 18.5906
1 28.5738 10.1711 18.6253
1 0 9.36379 19.4206
1 0.793701 8.57009 19.4206
1 0.824794 9.37289 18.6158
1 0.0696714 8.57065 18.5959
1 1.5874 9.36379 19.4206
1 2.3811 8.57009 19.4206
1 2.39759 9.36275 18.6301
1 1.58934 8.60249 18.6369
1 3.1748 9.36379 19.4206
1 3.9685 8.57009 19.4206
1 3.96675 9.37083 18.6097
1 3.17775 8.59319 18.6387
1 4.7622 9.36379 19.4206
1 5.5559 8.57009 19.4206
1 5.55027 9.37859 18.6344
1 4.78175 8.57239 18.6397
1 6.3496 9.36379 19.4206
1 7.1433 8.57009 19.4206
1 7.15576 9.36531 18.6259
1 6.34806 8.59122 18.6454
1 7.93701 9.36379 19.4206
1 8.73071 8.57009 19.4206
1 8.73456 9.35374 18.6302
1 7.94226 8.56006 18.6367
1 9.52441 9.36379 19.4206
1 10.3181 8.57009 19.4206
1 10.3308 9.36762 18.6439
1 9.55467 8.57336 18.6263
1 11.1118 9.36379 19.4206
1 11.9055 8.57009 19.4206
1 11.9283 9.36809 18.6111
1 11.1185 8.56744 18.6109
1 12.6992 9.36379 19.4206
1 13.4929 8.57009 19.4206
1 13.501 9.3559 18.6242
1 12.7032 8.55819 18.655
1 14.2866 9.36379 19.4206
1 15.0803 8.57009 19.4206
1 15.0836 9.38279 18.6407
1 14.2959 8.59066 18.6412
1 15.874 9.36379 19.4206
1 16.6677 8.57009 19.4206
1 16.6739 9.37938 18.6024
1 15.883 8.57121 18.6178
1 17.4614 9.36379 19.4206
1 18.2551 8.57009 19.4206
1 18.2707 9.37818 18.6249
1 17.45 8.5704 18.6071
1 19.0488 9.36379 19.4206
1 19.8425 8.57009 19.4206
1 19.8445 9.35072 18.6372
1 19.0524 8.61462 18.6045
1 20.6362 9.36379 19.4206
1 21.4299 8.57009 19.4206
1 21.4 9.39326 18.63
1 20.6274 8.58754 18.6326
1 22.2236 9.36379 19.4206
1 23.0173 8.57009 19.4206
1 23.008 9.37984 18.6205
1 22.2213 8.5747 18.6406
1 23.811 9.36379 19.4206
1 24.6047 8.57009 19.4206
1 24.5811 9.35792 18.6184
1 23.7983 8.58398 18.6295
1 25.3984 9.36379 19.4206
1 26.1921 8.57009 19.4206
1 26.1553 9.3532 18.6299
1 25.3856 8.56955 18.6474
1 26.9858 9.36379 19.4206
1 27.7795 8.57009 19.4206
1 27.7906 9.37057 18.6221
1 26.9749 8.59711 18.6284
1 28.5732 9.36379 19.4206
1 29.3669 8.57009 19.4206
1 29.306 9.35241 18.5941
1 28.5402 8.55431 18.6049
1 0 7.77639 19.4206
1 0.793701 6.98268 19.4206
1 0.864427 7.76868 18.6084
1 0.0577427 6.99772 18.5754
1 1.5874 7.77639 19.4206
1 2.3811 6.98268 19.4206
1 2.41336 7.77266 18.6653
1 1.60892 6.96485 18.6168
1 3.1748 7.77639 19.4206
1 3.9685 6.98268 19.4206
1 3.9759 7.79745 18.629
1 3.18579 6.96938 18.6219
1 4.7622 7.77639 19.4206
1 5.5559 6.98268 19.4206
1 5.5498 7.78269 18.6184
1 4.78471 6.96205 18.6258
1 6.3496 7.77639 19.4206
1 7.1433 6.98268 19.4206
1 7.15142 7.78755 18.6407
1 6.3438 6.99788 18.62
1 7.93701 7.77639 19.4206
1 8.73071 6.98268 19.4206
1 8.75407 7.76931 18.6471
1 7.95464 6.99813 18.6438
1 9.52441 7.77639 19.4206
1 10.3181 6.98268 19.4206
1 10.3115 7.76829 18.6318
1 9.51454 6.96544 18.6324
1 11.1118 7.77639 19.4206
1 11.9055 6.98268 19.4206
1 11.9015 7.76852 18.645
1 11.1039 6.97934 18.6274
1 12.6992 7.77639 19.4206
1 13.4929 6.98268 19.4206
1 13.5 7.76363 18.6314
1 12.7214 6.98541 18.6492
1 14.2866 7.77639 19.4206
1 15.0803 6.98268 19.4206
1 15.0973 7.78089 18.6198
1 14.2956 6.96576 18.6003
1 15.874 7.77639 19.4206
1 16.6677 6.98268 19.4206
1 16.6685 7.79795 18.6275
1 15.8642 6.98407 18.6252
1 17.4614 7.77639 19.4206
1 18.2551 6.98268 19.4206
1 18.2575 7.80307 18.622
1 17.4792 6.9977 18.6135
1 19.0488 7.77639 19.4206
1 19.8425 6.98268 19.4206
1 19.8324 7.77454 18.6176
1 19.0572 6.9703 18.6244
1 20.6362 7.77639 19.4206
1 21.4299 6.98268 19.4206
1 21.4249 7.76258 18.612
1 20.6481 6.97721 18.6281
1 22.2236 7.77639 19.4206
1 23.0173 6.98268 19.4206
1 23.0106 7.76455 18.6224
1 22.2183 6.97535 18.6297
1 23.811 7.77639 19.4206
1 24.6047 6.98268 19.4206
1 24.5957 7.77211 18.6465
1 23.8215 6.96875 18.6399
1 25.3984 7.77639 19.4206
1 26.1921 6.98268 19.4206
1 26.1881 7.77101 18.6253
1 25.407 6.97702 18.6467
1 26.9858 7.77639 19.4206
1 27.7795 6.98268 19.4206
1 27.7714 7.76276 18.6241
1 26.9764 6.97376 18.6349
1 28.5732 7.77639 19.4206
1 29.3669 6.98268 19.4206
1 29.3247 7.7656 18.5436
1 28.5501 6.96322 18.6171
1 0 6.18898 19.4206
1 0.793701 5.39528 19.4206
1 0.816113 6.18694 18.625
1 0.0938128 5.39059 18.5814
1 1.5874 6.18898 19.4206
1 2.3811 5.39528 19.4206
1 2.39116 6.16836 18.6155
1 1.60465 5.37319 18.618
1 3.1748 6.18898 19.4206
1 3.9685 5.39528 19.4206
1 3.97809 6.19892 18.635
1 3.1933 5.41535 18.6079
1 4.7622 6.18898 19.4206
1 5.5559 5.39528 19.4206
1 5.58284 6.18337 18.6323
1 4.78669 5.37987 18.6527
1 6.3496 6.18898 19.4206
1 7.1433 5.39528 19.4206
1 7.16252 6.17035 18.6157
1 6.36636 5.37929 18.6192
1 7.93701 6.18898 19.4206
1 8.73071 5.39528 19.4206
1 8.72191 6.17751 18.627
1 7.94877 5.37841 18.631
1 9.52441 6.18898 19.4206
1 10.3181 5.39528 19.4206