9376
Atoms. Timestep: 200000
1 25 3.55271e-15 10.6256
1 25.7937 29.2063 10.6256
1 25.8145 29.9275 9.79329
1 25.0544 29.1623 9.78115
1 26.5874 3.55271e-15 10.6256
1 27.3811 29.2063 10.6256
1 27.4062 29.9232 9.79161
1 26.5957 29.1894 9.80668
1 28.1748 3.55271e-15 10.6256
1 28.9685 29.2063 10.6256
1 28.9755 29.9534 9.79513
1 28.1869 29.1813 9.82183
1 29.7622 3.55271e-15 10.6256
1 0.555904 29.2063 10.6256
1 0.590568 29.9362 9.79926
1 29.7526 29.193 9.84631
1 1.3496 3.55271e-15 10.6256
1 2.1433 29.2063 10.6256
1 2.13939 29.9299 9.80545
1 1.35543 29.1702 9.80232
1 2.93701 3.55271e-15 10.6256
1 3.73071 29.2063 10.6256
1 3.7053 29.9456 9.79271
1 2.92302 29.1705 9.81965
1 4.52441 3.55271e-15 10.6256
1 5.31811 29.2063 10.6256
1 5.29418 29.9459 9.77792
1 4.49938 29.1802 9.83882
1 6.11181 3.55271e-15 10.6256
1 6.90551 29.2063 10.6256
1 6.91242 29.9192 9.78597
1 6.12599 29.1774 9.82129
1 7.69921 3.55271e-15 10.6256
1 8.49291 29.2063 10.6256
1 8.5199 29.9146 9.81502
1 7.71367 29.1729 9.82016
1 9.28661 3.55271e-15 10.6256
1 10.0803 29.2063 10.6256
1 10.0742 29.9356 9.78527
1 9.29525 29.1655 9.80537
1 10.874 3.55271e-15 10.6256
1 11.6677 29.2063 10.6256
1 11.6651 29.9346 9.78826
1 10.8511 29.1892 9.82462
1 12.4614 3.55271e-15 10.6256
1 13.2551 29.2063 10.6256
1 13.2464 29.9593 9.76262
1 12.4776 29.1778 9.82854
1 14.0488 3.55271e-15 10.6256
1 14.8425 29.2063 10.6256
1 14.8338 29.9354 9.8124
1 14.0585 29.191 9.85604
1 15.6362 3.55271e-15 10.6256
1 16.4299 29.2063 10.6256
1 16.4389 29.9547 9.78785
1 15.6472 29.1803 9.83405
1 17.2236 3.55271e-15 10.6256
1 18.0173 29.2063 10.6256
1 18.0079 29.9173 9.80698
1 17.2179 29.157 9.83871
1 18.811 3.55271e-15 10.6256
1 19.6047 29.2063 10.6256
1 19.6011 29.9242 9.79244
1 18.8171 29.1764 9.81881
1 20.3984 3.55271e-15 10.6256
1 21.1921 29.2063 10.6256
1 21.2007 29.9599 9.7713
1 20.3922 29.1901 9.81161
1 21.9858 3.55271e-15 10.6256
1 22.7795 29.2063 10.6256
1 22.7718 29.9304 9.79663
1 21.9665 29.1826 9.84967
1 23.5732 3.55271e-15 10.6256
1 24.3669 29.2063 10.6256
1 24.2944 29.9182 9.73581
1 23.5563 29.1565 9.80454
1 25 28.4126 10.6256
1 25.7937 27.6189 10.6256
1 25.8124 28.3916 9.83631
1 25.0721 27.5993 9.7967
1 26.5874 28.4126 10.6256
1 27.3811 27.6189 10.6256
1 27.3736 28.3922 9.84863
1 26.613 27.6005 9.82882
1 28.1748 28.4126 10.6256
1 28.9685 27.6189 10.6256
1 28.9627 28.423 9.86025
1 28.176 27.6224 9.84753
1 29.7622 28.4126 10.6256
1 0.555904 27.6189 10.6256
1 0.527234 28.4089 9.83413
1 29.7475 27.6291 9.83619
1 1.3496 28.4126 10.6256
1 2.1433 27.6189 10.6256
1 2.16759 28.3805 9.82899
1 1.34452 27.6381 9.85276
1 2.93701 28.4126 10.6256
1 3.73071 27.6189 10.6256
1 3.7267 28.3856 9.83927
1 2.94698 27.594 9.8325
1 4.52441 28.4126 10.6256
1 5.31811 27.6189 10.6256
1 5.31802 28.3954 9.81217
1 4.5422 27.5915 9.82243
1 6.11181 28.4126 10.6256
1 6.90551 27.6189 10.6256
1 6.90871 28.4083 9.81972
1 6.08582 27.6017 9.82454
1 7.69921 28.4126 10.6256
1 8.49291 27.6189 10.6256
1 8.49299 28.3834 9.83976
1 7.70135 27.606 9.81679
1 9.28661 28.4126 10.6256
1 10.0803 27.6189 10.6256
1 10.0808 28.4054 9.8213
1 9.27494 27.6214 9.82859
1 10.874 28.4126 10.6256
1 11.6677 27.6189 10.6256
1 11.6662 28.3901 9.8652
1 10.8588 27.613 9.86662
1 12.4614 28.4126 10.6256
1 13.2551 27.6189 10.6256
1 13.2515 28.4185 9.84472
1 12.5014 27.6325 9.83009
1 14.0488 28.4126 10.6256
1 14.8425 27.6189 10.6256
1 14.8289 28.4215 9.83619
1 14.0688 27.6179 9.83188
1 15.6362 28.4126 10.6256
1 16.4299 27.6189 10.6256
1 16.4299 28.4016 9.85763
1 15.6211 27.6136 9.82827
1 17.2236 28.4126 10.6256
1 18.0173 27.6189 10.6256
1 18.0018 28.4168 9.85112
1 17.232 27.5958 9.84615
1 18.811 28.4126 10.6256
1 19.6047 27.6189 10.6256
1 19.6057 28.3888 9.83325
1 18.7938 27.6101 9.84282
1 20.3984 28.4126 10.6256
1 21.1921 27.6189 10.6256
1 21.1651 28.3639 9.81081
1 20.3802 27.6054 9.81624
1 21.9858 28.4126 10.6256
1 22.7795 27.6189 10.6256
1 22.7811 28.4128 9.81292
1 21.9846 27.6242 9.81042
1 23.5732 28.4126 10.6256
1 24.3669 27.6189 10.6256
1 24.2903 28.3962 9.80125
1 23.5245 27.5815 9.82957
1 25 26.8252 10.6256
1 25.7937 26.0315 10.6256
1 25.8124 26.8308 9.84865
1 25.0748 26.0335 9.80528
1 26.5874 26.8252 10.6256
1 27.3811 26.0315 10.6256
1 27.3883 26.8159 9.81852
1 26.5932 26.0293 9.83601
1 28.1748 26.8252 10.6256
1 28.9685 26.0315 10.6256
1 28.9628 26.8077 9.8393
1 28.202 26.0379 9.83428
1 29.7622 26.8252 10.6256
1 0.555904 26.0315 10.6256
1 0.580355 26.8121 9.86896
1 29.7878 26.0341 9.82604
1 1.3496 26.8252 10.6256
1 2.1433 26.0315 10.6256
1 2.14085 26.817 9.8347
1 1.38842 26.0087 9.85619
1 2.93701 26.8252 10.6256
1 3.73071 26.0315 10.6256
1 3.71217 26.82 9.82247
1 2.92781 26.0111 9.83143
1 4.52441 26.8252 10.6256
1 5.31811 26.0315 10.6256
1 5.29267 26.8179 9.83772
1 4.53877 26.0148 9.80725
1 6.11181 26.8252 10.6256
1 6.90551 26.0315 10.6256
1 6.89391 26.817 9.81545
1 6.10564 26.0094 9.82975
1 7.69921 26.8252 10.6256
1 8.49291 26.0315 10.6256
1 8.50097 26.8346 9.86871
1 7.65929 26.0238 9.83673
1 9.28661 26.8252 10.6256
1 10.0803 26.0315 10.6256
1 10.0536 26.8395 9.82104
1 9.28056 26.004 9.83211
1 10.874 26.8252 10.6256
1 11.6677 26.0315 10.6256
1 11.6694 26.8255 9.82381
1 10.8766 26.0203 9.84048
1 12.4614 26.8252 10.6256
1 13.2551 26.0315 10.6256
1 13.2598 26.8313 9.8254
1 12.4636 26.0332 9.82717
1 14.0488 26.8252 10.6256
1 14.8425 26.0315 10.6256
1 14.85 26.8077 9.83816
1 14.0438 26.0362 9.82264
1 15.6362 26.8252 10.6256
1 16.4299 26.0315 10.6256
1 16.4227 26.8082 9.85128
1 15.6176 26.0328 9.80903
1 17.2236 26.8252 10.6256
1 18.0173 26.0315 10.6256
1 18.0286 26.7859 9.82736
1 17.2202 26.0108 9.83026
1 18.811 26.8252 10.6256
1 19.6047 26.0315 10.6256
1 19.6065 26.8099 9.83231
1 18.8233 26.0269 9.84377
1 20.3984 26.8252 10.6256
1 21.1921 26.0315 10.6256
1 21.1815 26.8276 9.83861
1 20.4058 26.0279 9.83442
1 21.9858 26.8252 10.6256
1 22.7795 26.0315 10.6256
1 22.7485 26.8225 9.83165
1 21.9877 26.013 9.82701
1 23.5732 26.8252 10.6256
1 24.3669 26.0315 10.6256
1 24.2814 26.8176 9.82455
1 23.5294 26.0278 9.82614
1 25 25.2378 10.6256
1 25.7937 24.4441 10.6256
1 25.8276 25.2471 9.82833
1 25.0748 24.4575 9.81303
1 26.5874 25.2378 10.6256
1 27.3811 24.4441 10.6256
1 27.3988 25.2457 9.81294
1 26.5902 24.4482 9.83744
1 28.1748 25.2378 10.6256
1 28.9685 24.4441 10.6256
1 28.9792 25.2368 9.83661
1 28.1808 24.4309 9.86436
1 29.7622 25.2378 10.6256
1 0.555904 24.4441 10.6256
1 0.565609 25.2493 9.81307
1 29.7918 24.4216 9.85972
1 1.3496 25.2378 10.6256
1 2.1433 24.4441 10.6256
1 2.13971 25.2162 9.83248
1 1.35982 24.4388 9.83536
1 2.93701 25.2378 10.6256
1 3.73071 24.4441 10.6256
1 3.74442 25.2341 9.81188
1 2.96057 24.4619 9.83809
1 4.52441 25.2378 10.6256
1 5.31811 24.4441 10.6256
1 5.30289 25.2334 9.82303
1 4.51985 24.4559 9.809
1 6.11181 25.2378 10.6256
1 6.90551 24.4441 10.6256
1 6.91659 25.2402 9.82903
1 6.10608 24.4453 9.81529
1 7.69921 25.2378 10.6256
1 8.49291 24.4441 10.6256
1 8.4915 25.2445 9.8238
1 7.71317 24.4622 9.82957
1 9.28661 25.2378 10.6256
1 10.0803 24.4441 10.6256
1 10.0726 25.2314 9.84302
1 9.30639 24.447 9.84139
1 10.874 25.2378 10.6256
1 11.6677 24.4441 10.6256
1 11.667 25.2247 9.8502
1 10.8608 24.4239 9.85102
1 12.4614 25.2378 10.6256
1 13.2551 24.4441 10.6256
1 13.2208 25.2402 9.83015
1 12.4626 24.4282 9.84604
1 14.0488 25.2378 10.6256
1 14.8425 24.4441 10.6256
1 14.8409 25.2313 9.81109
1 14.0249 24.4554 9.83689
1 15.6362 25.2378 10.6256
1 16.4299 24.4441 10.6256
1 16.4375 25.2364 9.81616
1 15.6398 24.4582 9.82027
1 17.2236 25.2378 10.6256
1 18.0173 24.4441 10.6256
1 17.986 25.2458 9.81808
1 17.2193 24.4542 9.82045
1 18.811 25.2378 10.6256
1 19.6047 24.4441 10.6256
1 19.6212 25.2565 9.82822
1 18.8046 24.4512 9.8482
1 20.3984 25.2378 10.6256
1 21.1921 24.4441 10.6256
1 21.1857 25.2283 9.82857
1 20.3859 24.4711 9.82521
1 21.9858 25.2378 10.6256
1 22.7795 24.4441 10.6256
1 22.7659 25.2254 9.82809
1 21.9749 24.4401 9.82587
1 23.5732 25.2378 10.6256
1 24.3669 24.4441 10.6256
1 24.3103 25.2113 9.81596
1 23.5286 24.447 9.82589
1 25 23.6504 10.6256
1 25.7937 22.8567 10.6256
1 25.7998 23.654 9.82975
1 25.0741 22.8755 9.81648
1 26.5874 23.6504 10.6256
1 27.3811 22.8567 10.6256
1 27.3884 23.6357 9.84321
1 26.6 22.8406 9.83094
1 28.1748 23.6504 10.6256
1 28.9685 22.8567 10.6256
1 28.9956 23.6399 9.80961
1 28.2099 22.8689 9.84218
1 29.7622 23.6504 10.6256
1 0.555904 22.8567 10.6256
1 0.556958 23.6447 9.82288
1 29.7432 22.8557 9.84697
1 1.3496 23.6504 10.6256
1 2.1433 22.8567 10.6256
1 2.15744 23.67 9.83185
1 1.37483 22.8626 9.83023
1 2.93701 23.6504 10.6256
1 3.73071 22.8567 10.6256
1 3.71804 23.6615 9.80799
1 2.93642 22.879 9.84622
1 4.52441 23.6504 10.6256
1 5.31811 22.8567 10.6256
1 5.34243 23.6562 9.83171
1 4.52813 22.8706 9.81574
1 6.11181 23.6504 10.6256
1 6.90551 22.8567 10.6256
1 6.9034 23.639 9.85656
1 6.10436 22.862 9.82763
1 7.69921 23.6504 10.6256
1 8.49291 22.8567 10.6256
1 8.51918 23.663 9.83287
1 7.73289 22.8715 9.81811
1 9.28661 23.6504 10.6256
1 10.0803 22.8567 10.6256
1 10.0779 23.6472 9.84595
1 9.31311 22.8549 9.86991
1 10.874 23.6504 10.6256
1 11.6677 22.8567 10.6256
1 11.6721 23.6492 9.83721
1 10.8709 22.859 9.84883
1 12.4614 23.6504 10.6256
1 13.2551 22.8567 10.6256
1 13.2517 23.6399 9.85903
1 12.4493 22.8564 9.84286
1 14.0488 23.6504 10.6256
1 14.8425 22.8567 10.6256
1 14.8251 23.6311 9.83493
1 14.0326 22.8384 9.8368
1 15.6362 23.6504 10.6256
1 16.4299 22.8567 10.6256
1 16.4415 23.6594 9.8606
1 15.6315 22.8607 9.84309
1 17.2236 23.6504 10.6256
1 18.0173 22.8567 10.6256
1 18.0102 23.6472 9.83239
1 17.2197 22.8578 9.84456
1 18.811 23.6504 10.6256
1 19.6047 22.8567 10.6256
1 19.6515 23.6726 9.84681
1 18.8434 22.8678 9.85193
1 20.3984 23.6504 10.6256
1 21.1921 22.8567 10.6256
1 21.1813 23.6669 9.82145
1 20.3902 22.8447 9.83716
1 21.9858 23.6504 10.6256
1 22.7795 22.8567 10.6256
1 22.7824 23.6166 9.82548
1 21.9708 22.8718 9.82923
1 23.5732 23.6504 10.6256
1 24.3669 22.8567 10.6256
1 24.3057 23.6631 9.78301
1 23.5774 22.8672 9.82822
1 25 22.063 10.6256
1 25.7937 21.2693 10.6256
1 25.8095 22.0372 9.83191
1 25.0519 21.2435 9.81373
1 26.5874 22.063 10.6256
1 27.3811 21.2693 10.6256
1 27.4086 22.0807 9.86539
1 26.6039 21.2643 9.83757
1 28.1748 22.063 10.6256
1 28.9685 21.2693 10.6256
1 28.9948 22.0582 9.82041
1 28.1705 21.2932 9.82994
1 29.7622 22.063 10.6256
1 0.555904 21.2693 10.6256
1 0.5656 22.0766 9.82129
1 29.7731 21.2525 9.83954
1 1.3496 22.063 10.6256
1 2.1433 21.2693 10.6256
1 2.14665 22.0613 9.83051
1 1.35789 21.2787 9.84446
1 2.93701 22.063 10.6256
1 3.73071 21.2693 10.6256
1 3.73147 22.0697 9.85743
1 2.92296 21.2592 9.83151
1 4.52441 22.063 10.6256
1 5.31811 21.2693 10.6256
1 5.32128 22.0813 9.84121
1 4.51701 21.252 9.85314
1 6.11181 22.063 10.6256
1 6.90551 21.2693 10.6256
1 6.90886 22.0382 9.84106
1 6.11671 21.2692 9.83361
1 7.69921 22.063 10.6256
1 8.49291 21.2693 10.6256
1 8.47113 22.0669 9.8402
1 7.67349 21.2737 9.81272
1 9.28661 22.063 10.6256
1 10.0803 21.2693 10.6256
1 10.0751 22.0594 9.82319
1 9.2829 21.2609 9.81901
1 10.874 22.063 10.6256
1 11.6677 21.2693 10.6256
1 11.6481 22.0472 9.8229
1 10.8261 21.2785 9.84197
1 12.4614 22.063 10.6256
1 13.2551 21.2693 10.6256
1 13.2606 22.0621 9.83462
1 12.444 21.2728 9.81636
1 14.0488 22.063 10.6256
1 14.8425 21.2693 10.6256
1 14.8178 22.0708 9.82867
1 14.064 21.2724 9.83414
1 15.6362 22.063 10.6256
1 16.4299 21.2693 10.6256
1 16.4003 22.0906 9.84986
1 15.6334 21.279 9.83962
1 17.2236 22.063 10.6256
1 18.0173 21.2693 10.6256
1 18.0059 22.0581 9.85227
1 17.1968 21.2866 9.82695
1 18.811 22.063 10.6256
1 19.6047 21.2693 10.6256
1 19.6026 22.051 9.82401
1 18.8083 21.2715 9.83216
1 20.3984 22.063 10.6256
1 21.1921 21.2693 10.6256
1 21.1952 22.0652 9.84743
1 20.41 21.2411 9.84882
1 21.9858 22.063 10.6256
1 22.7795 21.2693 10.6256
1 22.7643 22.0854 9.83595
1 21.9719 21.2439 9.833
1 23.5732 22.063 10.6256
1 24.3669 21.2693 10.6256
1 24.3156 22.0832 9.78078
1 23.5304 21.2654 9.79873
1 25 20.4756 10.6256
1 25.7937 19.6819 10.6256
1 25.8206 20.4561 9.83762
1 25.0428 19.6416 9.78631
1 26.5874 20.4756 10.6256
1 27.3811 19.6819 10.6256
1 27.4025 20.4796 9.86593
1 26.6053 19.6897 9.83219
1 28.1748 20.4756 10.6256
1 28.9685 19.6819 10.6256
1 28.9833 20.47 9.82134
1 28.1816 19.676 9.82532
1 29.7622 20.4756 10.6256
1 0.555904 19.6819 10.6256
1 0.574202 20.48 9.82211
1 29.7693 19.6832 9.84825
1 1.3496 20.4756 10.6256
1 2.1433 19.6819 10.6256
1 2.14955 20.4752 9.82854
1 1.36282 19.6598 9.83937
1 2.93701 20.4756 10.6256
1 3.73071 19.6819 10.6256
1 3.72338 20.4565 9.82772
1 2.92097 19.66 9.83507
1 4.52441 20.4756 10.6256
1 5.31811 19.6819 10.6256
1 5.33812 20.482 9.82951
1 4.51185 19.6815 9.81631
1 6.11181 20.4756 10.6256
1 6.90551 19.6819 10.6256
1 6.91291 20.4651 9.8317
1 6.10446 19.6943 9.82512
1 7.69921 20.4756 10.6256
1 8.49291 19.6819 10.6256
1 8.50067 20.4873 9.83148
1 7.71368 19.6607 9.81709
1 9.28661 20.4756 10.6256
1 10.0803 19.6819 10.6256
1 10.0538 20.4772 9.84848
1 9.31454 19.6622 9.84885
1 10.874 20.4756 10.6256
1 11.6677 19.6819 10.6256
1 11.644 20.4962 9.81983
1 10.8856 19.6775 9.83259
1 12.4614 20.4756 10.6256
1 13.2551 19.6819 10.6256
1 13.2651 20.4732 9.81034
1 12.4812 19.6888 9.84028
1 14.0488 20.4756 10.6256
1 14.8425 19.6819 10.6256
1 14.8379 20.4762 9.82394
1 14.0434 19.669 9.84447
1 15.6362 20.4756 10.6256
1 16.4299 19.6819 10.6256
1 16.4345 20.4656 9.82572
1 15.6392 19.6707 9.84997
1 17.2236 20.4756 10.6256
1 18.0173 19.6819 10.6256
1 18.0142 20.4564 9.83354
1 17.218 19.696 9.8399
1 18.811 20.4756 10.6256
1 19.6047 19.6819 10.6256
1 19.6079 20.4752 9.81161
1 18.8098 19.6963 9.82213
1 20.3984 20.4756 10.6256
1 21.1921 19.6819 10.6256
1 21.2206 20.4591 9.81742
1 20.4203 19.6758 9.82513
1 21.9858 20.4756 10.6256
1 22.7795 19.6819 10.6256
1 22.782 20.457 9.83679
1 21.9623 19.6743 9.83631
1 23.5732 20.4756 10.6256
1 24.3669 19.6819 10.6256
1 24.3079 20.4389 9.81671
1 23.5749 19.6949 9.78867
1 25 18.8882 10.6256
1 25.7937 18.0945 10.6256
1 25.8115 18.8813 9.80976
1 25.0986 18.083 9.78025
1 26.5874 18.8882 10.6256
1 27.3811 18.0945 10.6256
1 27.3871 18.8745 9.81936
1 26.6014 18.075 9.83478
1 28.1748 18.8882 10.6256
1 28.9685 18.0945 10.6256
1 28.9557 18.8605 9.82806
1 28.1608 18.0914 9.81081
1 29.7622 18.8882 10.6256
1 0.555904 18.0945 10.6256
1 0.577603 18.8766 9.83327
1 29.7299 18.0665 9.83108
1 1.3496 18.8882 10.6256
1 2.1433 18.0945 10.6256
1 2.17061 18.8852 9.81397
1 1.36286 18.071 9.83103
1 2.93701 18.8882 10.6256
1 3.73071 18.0945 10.6256
1 3.73188 18.8928 9.84402
1 2.93435 18.0885 9.79961
1 4.52441 18.8882 10.6256
1 5.31811 18.0945 10.6256
1 5.32138 18.8912 9.85288
1 4.51786 18.0797 9.82426
1 6.11181 18.8882 10.6256
1 6.90551 18.0945 10.6256
1 6.89791 18.8916 9.84151
1 6.10801 18.1117 9.81764
1 7.69921 18.8882 10.6256
1 8.49291 18.0945 10.6256
1 8.50323 18.8685 9.84149
1 7.69638 18.1004 9.81052
1 9.28661 18.8882 10.6256
1 10.0803 18.0945 10.6256
1 10.0967 18.8896 9.82081
1 9.27461 18.0955 9.79901
1 10.874 18.8882 10.6256
1 11.6677 18.0945 10.6256
1 11.6673 18.8974 9.83052
1 10.9008 18.0822 9.83133
1 12.4614 18.8882 10.6256
1 13.2551 18.0945 10.6256
1 13.273 18.8592 9.83723
1 12.4637 18.0787 9.83213
1 14.0488 18.8882 10.6256
1 14.8425 18.0945 10.6256
1 14.8278 18.8783 9.85358
1 14.0405 18.0837 9.83548
1 15.6362 18.8882 10.6256
1 16.4299 18.0945 10.6256
1 16.4129 18.8734 9.82779
1 15.6165 18.1088 9.82958
1 17.2236 18.8882 10.6256
1 18.0173 18.0945 10.6256
1 17.9989 18.893 9.82653
1 17.225 18.1007 9.84888
1 18.811 18.8882 10.6256
1 19.6047 18.0945 10.6256
1 19.6047 18.8948 9.84235
1 18.8298 18.1051 9.83978
1 20.3984 18.8882 10.6256
1 21.1921 18.0945 10.6256
1 21.2071 18.9015 9.82964
1 20.4161 18.124 9.81971
1 21.9858 18.8882 10.6256
1 22.7795 18.0945 10.6256
1 22.7757 18.8952 9.85258
1 21.9746 18.0965 9.83757
1 23.5732 18.8882 10.6256
1 24.3669 18.0945 10.6256
1 24.2921 18.8501 9.81367
1 23.5319 18.0906 9.82443
1 25 17.3008 10.6256
1 25.7937 16.5071 10.6256
1 25.8229 17.3012 9.81137
1 25.065 16.4977 9.78386
1 26.5874 17.3008 10.6256
1 27.3811 16.5071 10.6256
1 27.406 17.2644 9.83493
1 26.5727 16.506 9.83103
1 28.1748 17.3008 10.6256
1 28.9685 16.5071 10.6256
1 28.9706 17.2972 9.83434
1 28.184 16.5038 9.81971
1 29.7622 17.3008 10.6256
1 0.555904 16.5071 10.6256
1 0.562232 17.2981 9.84158
1 29.7699 16.4864 9.84475
1 1.3496 17.3008 10.6256
1 2.1433 16.5071 10.6256
1 2.15486 17.3053 9.86582
1 1.34147 16.5044 9.83184
1 2.93701 17.3008 10.6256
1 3.73071 16.5071 10.6256
1 3.71118 17.3034 9.82412
1 2.94818 16.5192 9.84789
1 4.52441 17.3008 10.6256
1 5.31811 16.5071 10.6256
1 5.3295 17.2681 9.82727
1 4.51424 16.5193 9.85631
1 6.11181 17.3008 10.6256
1 6.90551 16.5071 10.6256
1 6.89411 17.2818 9.81394
1 6.10894 16.4957 9.83351
1 7.69921 17.3008 10.6256
1 8.49291 16.5071 10.6256
1 8.50413 17.292 9.8178
1 7.70518 16.5147 9.83636
1 9.28661 17.3008 10.6256
1 10.0803 16.5071 10.6256
1 10.0964 17.2776 9.84787
1 9.28182 16.5186 9.84161
1 10.874 17.3008 10.6256
1 11.6677 16.5071 10.6256
1 11.6777 17.2799 9.83223
1 10.8648 16.4952 9.81394
1 12.4614 17.3008 10.6256
1 13.2551 16.5071 10.6256
1 13.2212 17.3023 9.83405
1 12.4504 16.508 9.84008
1 14.0488 17.3008 10.6256
1 14.8425 16.5071 10.6256
1 14.83 17.3202 9.83329
1 14.0514 16.5065 9.83007
1 15.6362 17.3008 10.6256
1 16.4299 16.5071 10.6256
1 16.4142 17.3241 9.83164
1 15.6364 16.5104 9.84826
1 17.2236 17.3008 10.6256
1 18.0173 16.5071 10.6256
1 18.0105 17.3214 9.82919
1 17.2132 16.521 9.8478
1 18.811 17.3008 10.6256
1 19.6047 16.5071 10.6256
1 19.5842 17.2914 9.8332
1 18.7859 16.5092 9.8373
1 20.3984 17.3008 10.6256
1 21.1921 16.5071 10.6256
1 21.1843 17.3201 9.81956
1 20.3853 16.5201 9.84515
1 21.9858 17.3008 10.6256
1 22.7795 16.5071 10.6256
1 22.7434 17.2691 9.85172
1 21.9641 16.4849 9.82757
1 23.5732 17.3008 10.6256
1 24.3669 16.5071 10.6256
1 24.3126 17.3217 9.79297
1 23.5342 16.5063 9.80852
1 25 15.7134 10.6256
1 25.7937 14.9197 10.6256
1 25.8376 15.6992 9.8332
1 25.0398 14.9003 9.77182
1 26.5874 15.7134 10.6256
1 27.3811 14.9197 10.6256
1 27.3617 15.6976 9.8375
1 26.6088 14.9312 9.82492
1 28.1748 15.7134 10.6256
1 28.9685 14.9197 10.6256
1 28.9753 15.7225 9.81456
1 28.1883 14.9143 9.84858
1 29.7622 15.7134 10.6256
1 0.555904 14.9197 10.6256
1 0.574352 15.727 9.84811
1 29.7481 14.9178 9.80515
1 1.3496 15.7134 10.6256
1 2.1433 14.9197 10.6256
1 2.12889 15.699 9.82154
1 1.31301 14.9225 9.80389
1 2.93701 15.7134 10.6256
1 3.73071 14.9197 10.6256
1 3.71773 15.7142 9.83652
1 2.93621 14.9063 9.84884
1 4.52441 15.7134 10.6256
1 5.31811 14.9197 10.6256
1 5.32712 15.7048 9.82559
1 4.52816 14.9153 9.82899
1 6.11181 15.7134 10.6256
1 6.90551 14.9197 10.6256
1 6.90491 15.7099 9.8313
1 6.1391 14.9352 9.81051
1 7.69921 15.7134 10.6256
1 8.49291 14.9197 10.6256
1 8.49521 15.7415 9.82788
1 7.70328 14.9115 9.84691
1 9.28661 15.7134 10.6256
1 10.0803 14.9197 10.6256
1 10.0819 15.7209 9.8109
1 9.31294 14.9025 9.83273
1 10.874 15.7134 10.6256
1 11.6677 14.9197 10.6256
1 11.6502 15.7169 9.82016
1 10.8811 14.9246 9.85114
1 12.4614 15.7134 10.6256
1 13.2551 14.9197 10.6256
1 13.2358 15.7112 9.86516
1 12.4644 14.9009 9.84404
1 14.0488 15.7134 10.6256
1 14.8425 14.9197 10.6256
1 14.853 15.7096 9.80339
1 14.034 14.9199 9.84636
1 15.6362 15.7134 10.6256
1 16.4299 14.9197 10.6256
1 16.4304 15.6916 9.84606
1 15.6592 14.9341 9.82246
1 17.2236 15.7134 10.6256
1 18.0173 14.9197 10.6256
1 18.0056 15.6881 9.85819
1 17.2046 14.8788 9.82006
1 18.811 15.7134 10.6256
1 19.6047 14.9197 10.6256
1 19.6105 15.7204 9.83673
1 18.8122 14.92 9.82812
1 20.3984 15.7134 10.6256
1 21.1921 14.9197 10.6256
1 21.1779 15.7113 9.83034
1 20.3686 14.9341 9.82718
1 21.9858 15.7134 10.6256
1 22.7795 14.9197 10.6256
1 22.7618 15.6984 9.81532
1 21.9579 14.9352 9.82048
1 23.5732 15.7134 10.6256
1 24.3669 14.9197 10.6256
1 24.2933 15.7183 9.77854
1 23.5411 14.9185 9.81942
1 25 14.126 10.6256
1 25.7937 13.3323 10.6256
1 25.834 14.1259 9.8202
1 25.0562 13.3119 9.79451
1 26.5874 14.126 10.6256
1 27.3811 13.3323 10.6256
1 27.3967 14.1105 9.81719
1 26.5989 13.3514 9.8447
1 28.1748 14.126 10.6256
1 28.9685 13.3323 10.6256
1 28.9874 14.157 9.82053
1 28.2042 13.347 9.83952
1 29.7622 14.126 10.6256
1 0.555904 13.3323 10.6256
1 0.573918 14.1133 9.83402
1 29.7748 13.3379 9.81947
1 1.3496 14.126 10.6256
1 2.1433 13.3323 10.6256
1 2.13518 14.133 9.83773
1 1.33899 13.3234 9.85828
1 2.93701 14.126 10.6256
1 3.73071 13.3323 10.6256
1 3.73678 14.1183 9.83842
1 2.95366 13.3379 9.84603
1 4.52441 14.126 10.6256
1 5.31811 13.3323 10.6256
1 5.32197 14.1208 9.8326
1 4.54374 13.3293 9.82225
1 6.11181 14.126 10.6256
1 6.90551 13.3323 10.6256
1 6.90551 14.1335 9.84415
1 6.11787 13.2978 9.81234
1 7.69921 14.126 10.6256
1 8.49291 13.3323 10.6256
1 8.50473 14.1342 9.84607
1 7.68505 13.323 9.86057
1 9.28661 14.126 10.6256
1 10.0803 13.3323 10.6256
1 10.0974 14.1247 9.83556
1 9.31173 13.3469 9.82242
1 10.874 14.126 10.6256
1 11.6677 13.3323 10.6256
1 11.6632 14.112 9.84614
1 10.8872 13.3335 9.83751
1 12.4614 14.126 10.6256
1 13.2551 13.3323 10.6256
1 13.2759 14.1085 9.85987
1 12.4803 13.3208 9.81429
1 14.0488 14.126 10.6256
1 14.8425 13.3323 10.6256
1 14.8478 14.1211 9.83105
1 14.0695 13.3468 9.8148
1 15.6362 14.126 10.6256
1 16.4299 13.3323 10.6256
1 16.4293 14.1265 9.83761
1 15.6617 13.3527 9.82328
1 17.2236 14.126 10.6256
1 18.0173 13.3323 10.6256
1 18.0085 14.125 9.82764
1 17.225 13.3363 9.82032
1 18.811 14.126 10.6256
1 19.6047 13.3323 10.6256
1 19.5935 14.128 9.83227
1 18.8094 13.3247 9.85318
1 20.3984 14.126 10.6256
1 21.1921 13.3323 10.6256
1 21.1676 14.1412 9.84111
1 20.3871 13.3589 9.83522
1 21.9858 14.126 10.6256
1 22.7795 13.3323 10.6256
1 22.7543 14.117 9.84136
1 21.974 13.3366 9.83854
1 23.5732 14.126 10.6256
1 24.3669 13.3323 10.6256
1 24.3012 14.1369 9.79659
1 23.5375 13.3254 9.83031
1 25 12.5386 10.6256
1 25.7937 11.7449 10.6256
1 25.8203 12.5296 9.81751
1 25.0557 11.7732 9.77871
1 26.5874 12.5386 10.6256
1 27.3811 11.7449 10.6256
1 27.3698 12.5558 9.81331
1 26.5912 11.747 9.81302
1 28.1748 12.5386 10.6256
1 28.9685 11.7449 10.6256
1 28.9659 12.5298 9.82871
1 28.1937 11.7273 9.82612
1 29.7622 12.5386 10.6256
1 0.555904 11.7449 10.6256
1 0.545665 12.5343 9.83504
1 29.7754 11.7416 9.84463
1 1.3496 12.5386 10.6256
1 2.1433 11.7449 10.6256
1 2.15442 12.5449 9.85634
1 1.36835 11.7387 9.82821
1 2.93701 12.5386 10.6256
1 3.73071 11.7449 10.6256
1 3.74128 12.5458 9.82724
1 2.93318 11.7501 9.8384
1 4.52441 12.5386 10.6256
1 5.31811 11.7449 10.6256
1 5.33295 12.5315 9.8374
1 4.54521 11.7392 9.83051
1 6.11181 12.5386 10.6256
1 6.90551 11.7449 10.6256
1 6.92047 12.5361 9.81908
1 6.1148 11.727 9.82751
1 7.69921 12.5386 10.6256
1 8.49291 11.7449 10.6256
1 8.51506 12.5687 9.82056
1 7.72485 11.7518 9.82998
1 9.28661 12.5386 10.6256
1 10.0803 11.7449 10.6256
1 10.0808 12.5584 9.82778
1 9.30776 11.7322 9.85326
1 10.874 12.5386 10.6256
1 11.6677 11.7449 10.6256
1 11.6595 12.543 9.82352
1 10.8702 11.7327 9.82486
1 12.4614 12.5386 10.6256
1 13.2551 11.7449 10.6256
1 13.2513 12.5419 9.8489
1 12.4363 11.7329 9.82934
1 14.0488 12.5386 10.6256
1 14.8425 11.7449 10.6256
1 14.8321 12.5543 9.80845
1 14.0348 11.7591 9.82506
1 15.6362 12.5386 10.6256
1 16.4299 11.7449 10.6256
1 16.4664 12.5593 9.83213
1 15.6282 11.7459 9.81576
1 17.2236 12.5386 10.6256
1 18.0173 11.7449 10.6256
1 18.0034 12.5397 9.81774
1 17.2228 11.7148 9.81852
1 18.811 12.5386 10.6256
1 19.6047 11.7449 10.6256
1 19.617 12.5558 9.84279
1 18.8093 11.7447 9.84474
1 20.3984 12.5386 10.6256
1 21.1921 11.7449 10.6256
1 21.1677 12.5668 9.83622
1 20.3733 11.735 9.83966
1 21.9858 12.5386 10.6256
1 22.7795 11.7449 10.6256
1 22.7639 12.5004 9.82376
1 21.9782 11.7544 9.85131
1 23.5732 12.5386 10.6256
1 24.3669 11.7449 10.6256
1 24.2972 12.5535 9.7964
1 23.5666 11.7162 9.82267
1 25 10.9512 10.6256
1 25.7937 10.1575 10.6256
1 25.836 10.9595 9.83778
1 25.0953 10.1602 9.78687
1 26.5874 10.9512 10.6256
1 27.3811 10.1575 10.6256
1 27.3924 10.951 9.84332
1 26.592 10.1413 9.81803
1 28.1748 10.9512 10.6256
1 28.9685 10.1575 10.6256
1 28.9347 10.9125 9.85381
1 28.1593 10.1351 9.84975
1 29.7622 10.9512 10.6256
1 0.555904 10.1575 10.6256
1 0.57221 10.9627 9.87095
1 29.7665 10.1641 9.83738
1 1.3496 10.9512 10.6256
1 2.1433 10.1575 10.6256
1 2.13698 10.942 9.85116
1 1.32714 10.1269 9.86006
1 2.93701 10.9512 10.6256
1 3.73071 10.1575 10.6256
1 3.72451 10.9563 9.82261
1 2.94943 10.1636 9.84055
1 4.52441 10.9512 10.6256
1 5.31811 10.1575 10.6256
1 5.31343 10.9111 9.82096
1 4.52603 10.1295 9.83589
1 6.11181 10.9512 10.6256
1 6.90551 10.1575 10.6256
1 6.91546 10.9565 9.82557
1 6.10133 10.1444 9.81644
1 7.69921 10.9512 10.6256
1 8.49291 10.1575 10.6256
1 8.52298 10.9396 9.8316
1 7.66948 10.1543 9.83037
1 9.28661 10.9512 10.6256
1 10.0803 10.1575 10.6256
1 10.0761 10.9417 9.84098
1 9.29799 10.1511 9.82508
1 10.874 10.9512 10.6256
1 11.6677 10.1575 10.6256
1 11.6781 10.9156 9.8437
1 10.8766 10.155 9.82922
1 12.4614 10.9512 10.6256
1 13.2551 10.1575 10.6256
1 13.252 10.9596 9.82235
1 12.4719 10.1852 9.83179
1 14.0488 10.9512 10.6256
1 14.8425 10.1575 10.6256
1 14.8306 10.9391 9.84015
1 14.0471 10.1518 9.82873
1 15.6362 10.9512 10.6256
1 16.4299 10.1575 10.6256
1 16.413 10.9427 9.81235
1 15.6148 10.1573 9.84683
1 17.2236 10.9512 10.6256
1 18.0173 10.1575 10.6256
1 18.0076 10.9703 9.84732
1 17.2189 10.1413 9.84449
1 18.811 10.9512 10.6256
1 19.6047 10.1575 10.6256
1 19.6159 10.9484 9.83214
1 18.7956 10.1478 9.86373
1 20.3984 10.9512 10.6256
1 21.1921 10.1575 10.6256
1 21.2002 10.9221 9.86373
1 20.3981 10.1501 9.85535
1 21.9858 10.9512 10.6256
1 22.7795 10.1575 10.6256
1 22.7724 10.9442 9.83382
1 21.9756 10.1552 9.83545
1 23.5732 10.9512 10.6256
1 24.3669 10.1575 10.6256
1 24.3125 10.93 9.80548
1 23.5809 10.1419 9.81341
1 25 9.36379 10.6256
1 25.7937 8.57009 10.6256
1 25.8323 9.35972 9.85249
1 25.0749 8.54809 9.80009
1 26.5874 9.36379 10.6256
1 27.3811 8.57009 10.6256
1 27.3846 9.37134 9.84557
1 26.605 8.57959 9.82701
1 28.1748 9.36379 10.6256
1 28.9685 8.57009 10.6256
1 28.9785 9.36278 9.82951
1 28.1854 8.58082 9.81899
1 29.7622 9.36379 10.6256
1 0.555904 8.57009 10.6256
1 0.559971 9.36061 9.82777
1 29.77 8.56691 9.82651
1 1.3496 9.36379 10.6256
1 2.1433 8.57009 10.6256
1 2.14883 9.38182 9.83198
1 1.3456 8.53167 9.83144
1 2.93701 9.36379 10.6256
1 3.73071 8.57009 10.6256
1 3.73638 9.3842 9.83212
1 2.95808 8.5775 9.82405
1 4.52441 9.36379 10.6256
1 5.31811 8.57009 10.6256
1 5.33334 9.36794 9.84941
1 4.53603 8.56369 9.83224
1 6.11181 9.36379 10.6256
1 6.90551 8.57009 10.6256
1 6.89335 9.35665 9.81871
1 6.12412 8.55925 9.82046
1 7.69921 9.36379 10.6256
1 8.49291 8.57009 10.6256
1 8.50564 9.35383 9.84958
1 7.72299 8.57096 9.84272
1 9.28661 9.36379 10.6256
1 10.0803 8.57009 10.6256
1 10.0905 9.3786 9.84381
1 9.29352 8.5604 9.84523
1 10.874 9.36379 10.6256
1 11.6677 8.57009 10.6256
1 11.6917 9.38446 9.82828
1 10.8843 8.5697 9.83195
1 12.4614 9.36379 10.6256
1 13.2551 8.57009 10.6256
1 13.2582 9.38374 9.84273
1 12.4798 8.57986 9.86513
1 14.0488 9.36379 10.6256
1 14.8425 8.57009 10.6256
1 14.8178 9.37943 9.85145
1 14.0579 8.58612 9.8223
1 15.6362 9.36379 10.6256
1 16.4299 8.57009 10.6256
1 16.4137 9.38483 9.84524
1 15.6332 8.55488 9.85608
1 17.2236 9.36379 10.6256
1 18.0173 8.57009 10.6256
1 18.003 9.33464 9.83304
1 17.195 8.56819 9.81376
1 18.811 9.36379 10.6256
1 19.6047 8.57009 10.6256
1 19.5991 9.36822 9.86966
1 18.8077 8.5633 9.85859
1 20.3984 9.36379 10.6256
1 21.1921 8.57009 10.6256
1 21.212 9.33052 9.84924
1 20.3991 8.57622 9.84155
1 21.9858 9.36379 10.6256
1 22.7795 8.57009 10.6256
1 22.7701 9.33791 9.82862
1 21.9649 8.56207 9.79424
1 23.5732 9.36379 10.6256
1 24.3669 8.57009 10.6256
1 24.3167 9.3353 9.7776
1 23.5354 8.55705 9.82054
1 25 7.77639 10.6256
1 25.7937 6.98268 10.6256
1 25.8447 7.79054 9.81514
1 25.0757 7.0105 9.78607
1 26.5874 7.77639 10.6256
1 27.3811 6.98268 10.6256
1 27.4001 7.78374 9.83618
1 26.5828 6.99324 9.81422
1 28.1748 7.77639 10.6256
1 28.9685 6.98268 10.6256
1 28.9755 7.79632 9.81918
1 28.1888 6.96362 9.83656
1 29.7622 7.77639 10.6256
1 0.555904 6.98268 10.6256
1 0.547571 7.77086 9.82784
1 29.7883 7.02624 9.82334
1 1.3496 7.77639 10.6256
1 2.1433 6.98268 10.6256
1 2.15141 7.7738 9.82832
1 1.35108 7.00316 9.83091
1 2.93701 7.77639 10.6256
1 3.73071 6.98268 10.6256
1 3.7363 7.77808 9.82184
1 2.9538 6.97958 9.84102
1 4.52441 7.77639 10.6256
1 5.31811 6.98268 10.6256
1 5.34544 7.78531 9.83061
1 4.52718 6.97754 9.83943
1 6.11181 7.77639 10.6256
1 6.90551 6.98268 10.6256
1 6.91133 7.74367 9.82266
1 6.09583 6.96075 9.84196
1 7.69921 7.77639 10.6256
1 8.49291 6.98268 10.6256
1 8.49797 7.77521 9.83815
1 7.71734 6.9939 9.83078
1 9.28661 7.77639 10.6256
1 10.0803 6.98268 10.6256
1 10.0606 7.76484 9.85962
1 9.27943 6.95262 9.80765
1 10.874 7.77639 10.6256
1 11.6677 6.98268 10.6256
1 11.657 7.77184 9.83666
1 10.8689 6.98506 9.84177
1 12.4614 7.77639 10.6256
1 13.2551 6.98268 10.6256
1 13.2546 7.79131 9.83845
1 12.4623 6.98413 9.82258
1 14.0488 7.77639 10.6256
1 14.8425 6.98268 10.6256
1 14.8324 7.76422 9.84861
1 14.0414 6.96834 9.82895
1 15.6362 7.77639 10.6256
1 16.4299 6.98268 10.6256
1 16.4338 7.7781 9.84733
1 15.6414 7.01671 9.85427
1 17.2236 7.77639 10.6256
1 18.0173 6.98268 10.6256
1 18.0085 7.77655 9.82599
1 17.2127 6.98736 9.83143
1 18.811 7.77639 10.6256
1 19.6047 6.98268 10.6256
1 19.5956 7.78639 9.83304
1 18.785 6.99307 9.84686
1 20.3984 7.77639 10.6256
1 21.1921 6.98268 10.6256
1 21.2055 7.78957 9.81878
1 20.404 6.99627 9.83314
1 21.9858 7.77639 10.6256
1 22.7795 6.98268 10.6256
1 22.7402 7.77987 9.83705
1 21.9677 6.96455 9.82576
1 23.5732 7.77639 10.6256
1 24.3669 6.98268 10.6256
1 24.278 7.74867 9.80646
1 23.5414 6.99773 9.81669
1 25 6.18898 10.6256
1 25.7937 5.39528 10.6256
1 25.8226 6.20364 9.82141
1 25.0742 5.40981 9.808
1 26.5874 6.18898 10.6256
1 27.3811 5.39528 10.6256
1 27.3989 6.19249 9.82648
1 26.6106 5.41034 9.84715
1 28.1748 6.18898 10.6256
1 28.9685 5.39528 10.6256
1 28.9871 6.20015 9.84242
1 28.1774 5.39408 9.84441
1 29.7622 6.18898 10.6256
1 0.555904 5.39528 10.6256
1 0.560357 6.17512 9.84757
1 29.7542 5.39501 9.86402
1 1.3496 6.18898 10.6256
1 2.1433 5.39528 10.6256
1 2.12445 6.19533 9.83629
1 1.33736 5.41631 9.82244
1 2.93701 6.18898 10.6256
1 3.73071 5.39528 10.6256