9376
Atoms. Timestep: 700000
1 0 3.55271e-15 10.7886
1 0.793701 29.2063 10.7886
1 0.827074 29.9605 9.96545
1 0.0661669 29.1814 9.94023
1 1.5874 3.55271e-15 10.7886
1 2.3811 29.2063 10.7886
1 2.35563 29.9532 9.99826
1 1.61713 29.1884 9.98697
1 3.1748 3.55271e-15 10.7886
1 3.9685 29.2063 10.7886
1 3.96177 29.9439 9.96348
1 3.17908 29.1688 10.0062
1 4.7622 3.55271e-15 10.7886
1 5.5559 29.2063 10.7886
1 5.55958 29.9176 9.94862
1 4.74906 29.1858 9.99136
1 6.3496 3.55271e-15 10.7886
1 7.1433 29.2063 10.7886
1 7.14084 29.9234 9.94399
1 6.34172 29.1785 9.98842
1 7.93701 3.55271e-15 10.7886
1 8.73071 29.2063 10.7886
1 8.75296 29.9414 9.95109
1 7.92653 29.1909 9.99648
1 9.52441 3.55271e-15 10.7886
1 10.3181 29.2063 10.7886
1 10.3282 29.9497 9.9518
1 9.54062 29.1629 9.99279
1 11.1118 3.55271e-15 10.7886
1 11.9055 29.2063 10.7886
1 11.9212 29.9407 9.96815
1 11.1389 29.1977 9.9793
1 12.6992 3.55271e-15 10.7886
1 13.4929 29.2063 10.7886
1 13.4958 29.9131 9.95473
1 12.7146 29.1842 9.98461
1 14.2866 3.55271e-15 10.7886
1 15.0803 29.2063 10.7886
1 15.0799 29.9434 9.9392
1 14.2793 29.1786 9.98418
1 15.874 3.55271e-15 10.7886
1 16.6677 29.2063 10.7886
1 16.6642 29.9469 9.9696
1 15.876 29.1983 9.9928
1 17.4614 3.55271e-15 10.7886
1 18.2551 29.2063 10.7886
1 18.2664 29.95 9.95285
1 17.4788 29.1793 9.94757
1 19.0488 3.55271e-15 10.7886
1 19.8425 29.2063 10.7886
1 19.8328 29.9365 9.9505
1 19.0612 29.1741 9.9773
1 20.6362 3.55271e-15 10.7886
1 21.4299 29.2063 10.7886
1 21.4191 29.9479 9.96208
1 20.6227 29.1827 9.98388
1 22.2236 3.55271e-15 10.7886
1 23.0173 29.2063 10.7886
1 22.9935 29.9312 9.95504
1 22.2261 29.1891 9.97422
1 23.811 3.55271e-15 10.7886
1 24.6047 29.2063 10.7886
1 24.5902 29.9315 9.97587
1 23.7955 29.1763 9.98453
1 25.3984 3.55271e-15 10.7886
1 26.1921 29.2063 10.7886
1 26.1902 29.9399 9.99298
1 25.4158 29.1928 9.98539
1 26.9858 3.55271e-15 10.7886
1 27.7795 29.2063 10.7886
1 27.7745 29.9437 9.94555
1 26.9814 29.1746 9.99961
1 28.5732 3.55271e-15 10.7886
1 29.3669 29.2063 10.7886
1 29.2878 29.9453 9.93327
1 28.5396 29.186 10.0158
1 0 28.4126 10.7886
1 0.793701 27.6189 10.7886
1 0.818701 28.378 9.95538
1 0.0599432 27.6016 9.94665
1 1.5874 28.4126 10.7886
1 2.3811 27.6189 10.7886
1 2.40806 28.4016 10.0065
1 1.61442 27.5713 9.99817
1 3.1748 28.4126 10.7886
1 3.9685 27.6189 10.7886
1 3.97473 28.3931 9.98679
1 3.22087 27.5999 10.0059
1 4.7622 28.4126 10.7886
1 5.5559 27.6189 10.7886
1 5.56446 28.3989 9.99279
1 4.78646 27.5876 10.0001
1 6.3496 28.4126 10.7886
1 7.1433 27.6189 10.7886
1 7.13534 28.385 10.004
1 6.37848 27.6039 9.96134
1 7.93701 28.4126 10.7886
1 8.73071 27.6189 10.7886
1 8.73553 28.4063 9.99354
1 7.92924 27.5964 9.99934
1 9.52441 28.4126 10.7886
1 10.3181 27.6189 10.7886
1 10.3364 28.3978 9.99146
1 9.51777 27.6301 9.98581
1 11.1118 28.4126 10.7886
1 11.9055 27.6189 10.7886
1 11.9132 28.4127 9.98292
1 11.1327 27.6125 9.99854
1 12.6992 28.4126 10.7886
1 13.4929 27.6189 10.7886
1 13.5083 28.4139 9.98868
1 12.7022 27.5937 9.99332
1 14.2866 28.4126 10.7886
1 15.0803 27.6189 10.7886
1 15.0859 28.4088 10.0066
1 14.3045 27.6025 10.0091
1 15.874 28.4126 10.7886
1 16.6677 27.6189 10.7886
1 16.638 28.414 9.9767
1 15.8633 27.6314 9.99383
1 17.4614 28.4126 10.7886
1 18.2551 27.6189 10.7886
1 18.2591 28.3975 10.0065
1 17.4471 27.6265 10.0036
1 19.0488 28.4126 10.7886
1 19.8425 27.6189 10.7886
1 19.8126 28.3826 9.99381
1 19.0166 27.6463 9.99435
1 20.6362 28.4126 10.7886
1 21.4299 27.6189 10.7886
1 21.4355 28.4094 9.98789
1 20.6407 27.6193 10.0134
1 22.2236 28.4126 10.7886
1 23.0173 27.6189 10.7886
1 23.0168 28.4204 9.99407
1 22.2501 27.6245 10.0026
1 23.811 28.4126 10.7886
1 24.6047 27.6189 10.7886
1 24.61 28.3777 9.98481
1 23.8276 27.6486 9.99096
1 25.3984 28.4126 10.7886
1 26.1921 27.6189 10.7886
1 26.1912 28.4187 10.0087
1 25.4122 27.6139 10.0017
1 26.9858 28.4126 10.7886
1 27.7795 27.6189 10.7886
1 27.7454 28.3965 9.99676
1 26.9384 27.5981 9.99294
1 28.5732 28.4126 10.7886
1 29.3669 27.6189 10.7886
1 29.3016 28.3907 9.97376
1 28.5422 27.6093 9.98286
1 0 26.8252 10.7886
1 0.793701 26.0315 10.7886
1 0.829363 26.8061 10.0085
1 0.0740072 26.0405 9.97021
1 1.5874 26.8252 10.7886
1 2.3811 26.0315 10.7886
1 2.40718 26.8058 9.9955
1 1.61009 26.016 9.98168
1 3.1748 26.8252 10.7886
1 3.9685 26.0315 10.7886
1 3.97454 26.8021 9.9958
1 3.16562 25.985 10.0061
1 4.7622 26.8252 10.7886
1 5.5559 26.0315 10.7886
1 5.56073 26.7994 9.99688
1 4.75275 26.0219 10.0005
1 6.3496 26.8252 10.7886
1 7.1433 26.0315 10.7886
1 7.14083 26.8121 9.98704
1 6.35385 26.0268 9.98879
1 7.93701 26.8252 10.7886
1 8.73071 26.0315 10.7886
1 8.71809 26.814 9.97832
1 7.95454 26.0015 9.998
1 9.52441 26.8252 10.7886
1 10.3181 26.0315 10.7886
1 10.3329 26.834 9.99892
1 9.53628 26.041 10.0033
1 11.1118 26.8252 10.7886
1 11.9055 26.0315 10.7886
1 11.8972 26.7998 10.0001
1 11.1194 26.0362 9.98526
1 12.6992 26.8252 10.7886
1 13.4929 26.0315 10.7886
1 13.4872 26.8306 9.98644
1 12.6743 26.0324 10.0161
1 14.2866 26.8252 10.7886
1 15.0803 26.0315 10.7886
1 15.0696 26.8377 9.99399
1 14.2943 26.0131 9.99916
1 15.874 26.8252 10.7886
1 16.6677 26.0315 10.7886
1 16.6627 26.8305 9.98213
1 15.8588 26.0293 9.97262
1 17.4614 26.8252 10.7886
1 18.2551 26.0315 10.7886
1 18.2335 26.8351 9.9888
1 17.4432 26.0535 10.0066
1 19.0488 26.8252 10.7886
1 19.8425 26.0315 10.7886
1 19.8419 26.8433 10.0065
1 19.039 26.03 9.99172
1 20.6362 26.8252 10.7886
1 21.4299 26.0315 10.7886
1 21.4154 26.8313 9.99966
1 20.6479 26.028 9.99174
1 22.2236 26.8252 10.7886
1 23.0173 26.0315 10.7886
1 23.0107 26.8327 9.97932
1 22.2346 26.0131 9.97611
1 23.811 26.8252 10.7886
1 24.6047 26.0315 10.7886
1 24.5858 26.8131 10.0089
1 23.79 26.0417 9.99367
1 25.3984 26.8252 10.7886
1 26.1921 26.0315 10.7886
1 26.1949 26.8301 10.0001
1 25.4113 26.0303 10.013
1 26.9858 26.8252 10.7886
1 27.7795 26.0315 10.7886
1 27.7367 26.8182 10.0055
1 26.9453 26.0206 9.97765
1 28.5732 26.8252 10.7886
1 29.3669 26.0315 10.7886
1 29.2927 26.7994 9.95531
1 28.5265 26.0493 9.96992
1 0 25.2378 10.7886
1 0.793701 24.4441 10.7886
1 0.816045 25.2514 9.99198
1 0.07009 24.4562 9.96035
1 1.5874 25.2378 10.7886
1 2.3811 24.4441 10.7886
1 2.39227 25.2226 10.0145
1 1.62498 24.4442 9.96782
1 3.1748 25.2378 10.7886
1 3.9685 24.4441 10.7886
1 3.96481 25.2281 9.99715
1 3.17315 24.4358 10.0084
1 4.7622 25.2378 10.7886
1 5.5559 24.4441 10.7886
1 5.5439 25.2286 9.96842
1 4.77504 24.426 9.98591
1 6.3496 25.2378 10.7886
1 7.1433 24.4441 10.7886
1 7.12898 25.2467 9.99432
1 6.33115 24.4514 10.0095
1 7.93701 25.2378 10.7886
1 8.73071 24.4441 10.7886
1 8.73422 25.2243 9.99075
1 7.94468 24.4296 9.97445
1 9.52441 25.2378 10.7886
1 10.3181 24.4441 10.7886
1 10.3251 25.2392 9.98305
1 9.55542 24.4237 9.98055
1 11.1118 25.2378 10.7886
1 11.9055 24.4441 10.7886
1 11.9049 25.2224 9.98926
1 11.1152 24.4256 9.98384
1 12.6992 25.2378 10.7886
1 13.4929 24.4441 10.7886
1 13.5047 25.2133 9.99088
1 12.6934 24.4154 10.0129
1 14.2866 25.2378 10.7886
1 15.0803 24.4441 10.7886
1 15.0899 25.2178 9.98746
1 14.2958 24.4254 9.98739
1 15.874 25.2378 10.7886
1 16.6677 24.4441 10.7886
1 16.6787 25.2288 9.9857
1 15.8872 24.449 9.99638
1 17.4614 25.2378 10.7886
1 18.2551 24.4441 10.7886
1 18.2684 25.237 9.99215
1 17.4714 24.4483 9.99839
1 19.0488 25.2378 10.7886
1 19.8425 24.4441 10.7886
1 19.85 25.2145 10.0205
1 19.0019 24.423 9.97594
1 20.6362 25.2378 10.7886
1 21.4299 24.4441 10.7886
1 21.4208 25.2521 9.98533
1 20.6491 24.4418 9.99538
1 22.2236 25.2378 10.7886
1 23.0173 24.4441 10.7886
1 23.0236 25.2076 9.98988
1 22.2077 24.458 9.97574
1 23.811 25.2378 10.7886
1 24.6047 24.4441 10.7886
1 24.591 25.2353 9.9828
1 23.8193 24.4499 9.99341
1 25.3984 25.2378 10.7886
1 26.1921 24.4441 10.7886
1 26.1967 25.2205 9.98968
1 25.361 24.4351 10.0077
1 26.9858 25.2378 10.7886
1 27.7795 24.4441 10.7886
1 27.7594 25.2341 10.0076
1 26.9704 24.4727 9.98509
1 28.5732 25.2378 10.7886
1 29.3669 24.4441 10.7886
1 29.303 25.2328 9.95257
1 28.533 24.4541 9.99703
1 0 23.6504 10.7886
1 0.793701 22.8567 10.7886
1 0.831367 23.661 9.96602
1 0.0734006 22.8666 9.9562
1 1.5874 23.6504 10.7886
1 2.3811 22.8567 10.7886
1 2.39216 23.6415 9.98801
1 1.59208 22.8807 10.0071
1 3.1748 23.6504 10.7886
1 3.9685 22.8567 10.7886
1 3.97308 23.6191 10.0178
1 3.17183 22.852 10.002
1 4.7622 23.6504 10.7886
1 5.5559 22.8567 10.7886
1 5.56681 23.6234 10.0144
1 4.75545 22.8573 9.99293
1 6.3496 23.6504 10.7886
1 7.1433 22.8567 10.7886
1 7.14665 23.6383 9.97522
1 6.36892 22.8671 9.99003
1 7.93701 23.6504 10.7886
1 8.73071 22.8567 10.7886
1 8.73498 23.678 10.0023
1 7.93028 22.8612 10.0118
1 9.52441 23.6504 10.7886
1 10.3181 22.8567 10.7886
1 10.3427 23.6464 9.98618
1 9.53417 22.8855 10.009
1 11.1118 23.6504 10.7886
1 11.9055 22.8567 10.7886
1 11.8969 23.6435 9.96956
1 11.1022 22.8497 9.98313
1 12.6992 23.6504 10.7886
1 13.4929 22.8567 10.7886
1 13.4803 23.6237 9.98623
1 12.7003 22.8672 10.004
1 14.2866 23.6504 10.7886
1 15.0803 22.8567 10.7886
1 15.0905 23.6588 9.97147
1 14.2994 22.8825 10.0063
1 15.874 23.6504 10.7886
1 16.6677 22.8567 10.7886
1 16.6805 23.6409 9.99704
1 15.866 22.8434 9.99943
1 17.4614 23.6504 10.7886
1 18.2551 22.8567 10.7886
1 18.2454 23.6202 9.99082
1 17.457 22.8522 9.98209
1 19.0488 23.6504 10.7886
1 19.8425 22.8567 10.7886
1 19.8008 23.6395 10.0145
1 19.0436 22.8118 9.99065
1 20.6362 23.6504 10.7886
1 21.4299 22.8567 10.7886
1 21.4187 23.6401 9.98959
1 20.6305 22.8725 9.99206
1 22.2236 23.6504 10.7886
1 23.0173 22.8567 10.7886
1 22.9938 23.6688 10.0071
1 22.2174 22.8717 9.98733
1 23.811 23.6504 10.7886
1 24.6047 22.8567 10.7886
1 24.5664 23.6653 10.0092
1 23.7987 22.8501 9.9971
1 25.3984 23.6504 10.7886
1 26.1921 22.8567 10.7886
1 26.1705 23.6542 10.0004
1 25.387 22.8541 9.9974
1 26.9858 23.6504 10.7886
1 27.7795 22.8567 10.7886
1 27.7383 23.6583 9.97798
1 26.9553 22.8641 10.0102
1 28.5732 23.6504 10.7886
1 29.3669 22.8567 10.7886
1 29.3001 23.6508 9.97196
1 28.5598 22.8639 9.97711
1 0 22.063 10.7886
1 0.793701 21.2693 10.7886
1 0.837619 22.0614 9.99421
1 0.0800756 21.2559 9.96427
1 1.5874 22.063 10.7886
1 2.3811 21.2693 10.7886
1 2.355 22.0773 9.9814
1 1.60934 21.263 9.97863
1 3.1748 22.063 10.7886
1 3.9685 21.2693 10.7886
1 3.96501 22.0627 9.99378
1 3.1614 21.268 10.0141
1 4.7622 22.063 10.7886
1 5.5559 21.2693 10.7886
1 5.55739 22.0744 10.0053
1 4.77415 21.2949 10.0067
1 6.3496 22.063 10.7886
1 7.1433 21.2693 10.7886
1 7.13815 22.0611 9.98277
1 6.33862 21.2598 9.98979
1 7.93701 22.063 10.7886
1 8.73071 21.2693 10.7886
1 8.7393 22.0868 9.99794
1 7.9181 21.2534 9.99431
1 9.52441 22.063 10.7886
1 10.3181 21.2693 10.7886
1 10.3056 22.0601 9.98693
1 9.50288 21.2773 10.0056
1 11.1118 22.063 10.7886
1 11.9055 21.2693 10.7886
1 11.9213 22.0778 9.99573
1 11.1104 21.2721 9.98837
1 12.6992 22.063 10.7886
1 13.4929 21.2693 10.7886
1 13.4844 22.0713 10.0121
1 12.7025 21.2594 9.98113
1 14.2866 22.063 10.7886
1 15.0803 21.2693 10.7886
1 15.1087 22.0542 10.0053
1 14.2888 21.2858 10.0047
1 15.874 22.063 10.7886
1 16.6677 21.2693 10.7886
1 16.7017 22.0613 9.99749
1 15.8899 21.2805 9.99675
1 17.4614 22.063 10.7886
1 18.2551 21.2693 10.7886
1 18.2529 22.0591 10.0264
1 17.4548 21.2656 10.0035
1 19.0488 22.063 10.7886
1 19.8425 21.2693 10.7886
1 19.838 22.0522 9.97305
1 19.0678 21.2494 9.98709
1 20.6362 22.063 10.7886
1 21.4299 21.2693 10.7886
1 21.4276 22.076 9.99315
1 20.6393 21.267 10.0234
1 22.2236 22.063 10.7886
1 23.0173 21.2693 10.7886
1 23.0167 22.0505 10.0055
1 22.2112 21.2788 9.97746
1 23.811 22.063 10.7886
1 24.6047 21.2693 10.7886
1 24.586 22.0482 9.99639
1 23.8356 21.2517 9.99746
1 25.3984 22.063 10.7886
1 26.1921 21.2693 10.7886
1 26.1906 22.0621 10.0068
1 25.4018 21.2864 10.0317
1 26.9858 22.063 10.7886
1 27.7795 21.2693 10.7886
1 27.7559 22.0565 9.98626
1 26.9905 21.28 10.0126
1 28.5732 22.063 10.7886
1 29.3669 21.2693 10.7886
1 29.3055 22.0475 9.95208
1 28.5749 21.275 9.9794
1 0 20.4756 10.7886
1 0.793701 19.6819 10.7886
1 0.83083 20.4589 9.99017
1 0.0747561 19.6797 9.95022
1 1.5874 20.4756 10.7886
1 2.3811 19.6819 10.7886
1 2.38483 20.4768 10.0184
1 1.61744 19.6837 9.96305
1 3.1748 20.4756 10.7886
1 3.9685 19.6819 10.7886
1 3.98365 20.4891 9.99657
1 3.20848 19.6912 9.98048
1 4.7622 20.4756 10.7886
1 5.5559 19.6819 10.7886
1 5.57128 20.4548 9.98291
1 4.73494 19.6784 9.99054
1 6.3496 20.4756 10.7886
1 7.1433 19.6819 10.7886
1 7.1198 20.4335 9.96859
1 6.34107 19.6508 9.99019
1 7.93701 20.4756 10.7886
1 8.73071 19.6819 10.7886
1 8.7251 20.4799 9.95997
1 7.92184 19.6773 10.0017
1 9.52441 20.4756 10.7886
1 10.3181 19.6819 10.7886
1 10.2886 20.4772 10.0041
1 9.50104 19.6915 10.0063
1 11.1118 20.4756 10.7886
1 11.9055 19.6819 10.7886
1 11.9016 20.4783 9.98462
1 11.1198 19.6919 9.9899
1 12.6992 20.4756 10.7886
1 13.4929 19.6819 10.7886
1 13.5184 20.4836 9.97356
1 12.709 19.6945 9.98206
1 14.2866 20.4756 10.7886
1 15.0803 19.6819 10.7886
1 15.0726 20.4965 9.99341
1 14.2994 19.6721 9.99417
1 15.874 20.4756 10.7886
1 16.6677 19.6819 10.7886
1 16.6444 20.4672 10.0004
1 15.8535 19.6561 10.0224
1 17.4614 20.4756 10.7886
1 18.2551 19.6819 10.7886
1 18.2529 20.5082 9.98853
1 17.45 19.6904 9.99438
1 19.0488 20.4756 10.7886
1 19.8425 19.6819 10.7886
1 19.8406 20.4663 9.97173
1 19.0205 19.6825 10.0006
1 20.6362 20.4756 10.7886
1 21.4299 19.6819 10.7886
1 21.4277 20.477 9.99624
1 20.6278 19.677 9.98328
1 22.2236 20.4756 10.7886
1 23.0173 19.6819 10.7886
1 23.0158 20.4545 9.99904
1 22.2309 19.6805 9.996
1 23.811 20.4756 10.7886
1 24.6047 19.6819 10.7886
1 24.6263 20.4758 10.0184
1 23.8218 19.6873 9.98146
1 25.3984 20.4756 10.7886
1 26.1921 19.6819 10.7886
1 26.1717 20.4979 9.9754
1 25.4027 19.6575 9.98709
1 26.9858 20.4756 10.7886
1 27.7795 19.6819 10.7886
1 27.7623 20.4908 9.98945
1 26.9867 19.7117 9.99492
1 28.5732 20.4756 10.7886
1 29.3669 19.6819 10.7886
1 29.3096 20.4562 9.96759
1 28.5436 19.7265 9.95459
1 0 18.8882 10.7886
1 0.793701 18.0945 10.7886
1 0.8267 18.8766 10.0176
1 0.0949538 18.1082 9.96903
1 1.5874 18.8882 10.7886
1 2.3811 18.0945 10.7886
1 2.40355 18.884 10.0009
1 1.59077 18.0868 10.0033
1 3.1748 18.8882 10.7886
1 3.9685 18.0945 10.7886
1 3.95966 18.8927 10.0017
1 3.18166 18.0952 9.96941
1 4.7622 18.8882 10.7886
1 5.5559 18.0945 10.7886
1 5.55463 18.8852 9.97878
1 4.74932 18.0897 10.0121
1 6.3496 18.8882 10.7886
1 7.1433 18.0945 10.7886
1 7.12757 18.8785 10.0046
1 6.37807 18.0832 9.98806
1 7.93701 18.8882 10.7886
1 8.73071 18.0945 10.7886
1 8.72428 18.8933 9.99636
1 7.92309 18.0883 10.0117
1 9.52441 18.8882 10.7886
1 10.3181 18.0945 10.7886
1 10.3293 18.8824 9.98541
1 9.52878 18.0879 10.0282
1 11.1118 18.8882 10.7886
1 11.9055 18.0945 10.7886
1 11.8907 18.8914 9.99528
1 11.1038 18.0721 9.98441
1 12.6992 18.8882 10.7886
1 13.4929 18.0945 10.7886
1 13.4872 18.8929 10.0343
1 12.697 18.1087 9.98874
1 14.2866 18.8882 10.7886
1 15.0803 18.0945 10.7886
1 15.0699 18.8812 9.99002
1 14.2859 18.0721 9.99159
1 15.874 18.8882 10.7886
1 16.6677 18.0945 10.7886
1 16.6674 18.8867 9.993
1 15.8967 18.0876 10.0104
1 17.4614 18.8882 10.7886
1 18.2551 18.0945 10.7886
1 18.2482 18.8937 9.99587
1 17.4719 18.0988 9.99623
1 19.0488 18.8882 10.7886
1 19.8425 18.0945 10.7886
1 19.8416 18.8846 10.0105
1 19.0503 18.0858 10.0089
1 20.6362 18.8882 10.7886
1 21.4299 18.0945 10.7886
1 21.4185 18.867 9.9948
1 20.6459 18.1163 9.98422
1 22.2236 18.8882 10.7886
1 23.0173 18.0945 10.7886
1 23.0123 18.8827 9.99583
1 22.2258 18.0854 9.98531
1 23.811 18.8882 10.7886
1 24.6047 18.0945 10.7886
1 24.5987 18.8769 10.0128
1 23.8035 18.1147 9.97637
1 25.3984 18.8882 10.7886
1 26.1921 18.0945 10.7886
1 26.1956 18.8769 9.99591
1 25.4118 18.0984 10.0082
1 26.9858 18.8882 10.7886
1 27.7795 18.0945 10.7886
1 27.7676 18.8801 9.99412
1 26.9775 18.105 9.99806
1 28.5732 18.8882 10.7886
1 29.3669 18.0945 10.7886
1 29.3077 18.9069 9.96205
1 28.5331 18.096 9.96941
1 0 17.3008 10.7886
1 0.793701 16.5071 10.7886
1 0.830903 17.3069 9.99163
1 0.0739518 16.5134 9.98278
1 1.5874 17.3008 10.7886
1 2.3811 16.5071 10.7886
1 2.35503 17.3169 9.9884
1 1.58562 16.5422 10.0181
1 3.1748 17.3008 10.7886
1 3.9685 16.5071 10.7886
1 3.95311 17.2976 10.0178
1 3.15545 16.5211 9.98809
1 4.7622 17.3008 10.7886
1 5.5559 16.5071 10.7886
1 5.55483 17.3161 9.98256
1 4.74771 16.5135 10.0047
1 6.3496 17.3008 10.7886
1 7.1433 16.5071 10.7886
1 7.1433 17.2959 10.0121
1 6.3308 16.5352 9.99839
1 7.93701 17.3008 10.7886
1 8.73071 16.5071 10.7886
1 8.71003 17.2747 9.98773
1 7.91806 16.5051 9.97439
1 9.52441 17.3008 10.7886
1 10.3181 16.5071 10.7886
1 10.3177 17.3106 9.98188
1 9.50942 16.5079 10.0177
1 11.1118 17.3008 10.7886
1 11.9055 16.5071 10.7886
1 11.9148 17.2998 10.0056
1 11.1176 16.5176 9.97912
1 12.6992 17.3008 10.7886
1 13.4929 16.5071 10.7886
1 13.4752 17.3056 10.0081
1 12.701 16.4937 10.0181
1 14.2866 17.3008 10.7886
1 15.0803 16.5071 10.7886
1 15.0782 17.3192 9.98545
1 14.2993 16.4836 9.98247
1 15.874 17.3008 10.7886
1 16.6677 16.5071 10.7886
1 16.6634 17.3129 9.99341
1 15.8645 16.523 9.99293
1 17.4614 17.3008 10.7886
1 18.2551 16.5071 10.7886
1 18.273 17.3048 10.0137
1 17.4457 16.5032 10.0031
1 19.0488 17.3008 10.7886
1 19.8425 16.5071 10.7886
1 19.8846 17.2973 9.98067
1 19.0255 16.5053 10.001
1 20.6362 17.3008 10.7886
1 21.4299 16.5071 10.7886
1 21.4219 17.282 9.98949
1 20.6443 16.5019 9.99311
1 22.2236 17.3008 10.7886
1 23.0173 16.5071 10.7886
1 23.0103 17.2848 9.97933
1 22.2159 16.4893 10.0128
1 23.811 17.3008 10.7886
1 24.6047 16.5071 10.7886
1 24.5927 17.2933 9.99898
1 23.8334 16.5224 9.99374
1 25.3984 17.3008 10.7886
1 26.1921 16.5071 10.7886
1 26.1852 17.2886 10.002
1 25.4079 16.4755 10.0045
1 26.9858 17.3008 10.7886
1 27.7795 16.5071 10.7886
1 27.7743 17.29 10.0006
1 27.0061 16.5059 9.98918
1 28.5732 17.3008 10.7886
1 29.3669 16.5071 10.7886
1 29.3043 17.2863 9.96926
1 28.5438 16.5102 9.97564
1 0 15.7134 10.7886
1 0.793701 14.9197 10.7886
1 0.858443 15.7097 9.99613
1 0.0845406 14.9247 9.9748
1 1.5874 15.7134 10.7886
1 2.3811 14.9197 10.7886
1 2.35733 15.7216 9.99236
1 1.61255 14.8937 9.98804
1 3.1748 15.7134 10.7886
1 3.9685 14.9197 10.7886
1 3.94446 15.7411 9.99784
1 3.16875 14.9288 9.99105
1 4.7622 15.7134 10.7886
1 5.5559 14.9197 10.7886
1 5.55829 15.7213 9.99184
1 4.72937 14.9185 10.0245
1 6.3496 15.7134 10.7886
1 7.1433 14.9197 10.7886
1 7.13271 15.7259 10.0067
1 6.31766 14.9234 9.98683
1 7.93701 15.7134 10.7886
1 8.73071 14.9197 10.7886
1 8.71189 15.7021 9.97377
1 7.93279 14.9361 10.0067
1 9.52441 15.7134 10.7886
1 10.3181 14.9197 10.7886
1 10.3373 15.7501 9.99065
1 9.52858 14.9474 9.99708
1 11.1118 15.7134 10.7886
1 11.9055 14.9197 10.7886
1 11.9012 15.7135 9.9862
1 11.0934 14.9191 9.99362
1 12.6992 15.7134 10.7886
1 13.4929 14.9197 10.7886
1 13.5079 15.7127 9.98466
1 12.6847 14.899 10.0115
1 14.2866 15.7134 10.7886
1 15.0803 14.9197 10.7886
1 15.0635 15.6833 9.99347
1 14.2678 14.896 9.96034
1 15.874 15.7134 10.7886
1 16.6677 14.9197 10.7886
1 16.6708 15.7306 9.99287
1 15.8941 14.932 9.97913
1 17.4614 15.7134 10.7886
1 18.2551 14.9197 10.7886
1 18.2598 15.7195 9.99361
1 17.4646 14.9349 9.99154
1 19.0488 15.7134 10.7886
1 19.8425 14.9197 10.7886
1 19.8352 15.7137 9.99423
1 19.0593 14.9174 9.98551
1 20.6362 15.7134 10.7886
1 21.4299 14.9197 10.7886
1 21.4207 15.6874 10.0062
1 20.6173 14.9385 10.0165
1 22.2236 15.7134 10.7886
1 23.0173 14.9197 10.7886
1 23.0345 15.7271 9.99346
1 22.2258 14.9257 10.0074
1 23.811 15.7134 10.7886
1 24.6047 14.9197 10.7886
1 24.5987 15.7014 10.0005
1 23.8188 14.9158 10.0071
1 25.3984 15.7134 10.7886
1 26.1921 14.9197 10.7886
1 26.1817 15.7088 9.99741
1 25.3984 14.9139 10.0001
1 26.9858 15.7134 10.7886
1 27.7795 14.9197 10.7886
1 27.7638 15.7156 10.0172
1 26.9758 14.8932 9.99721
1 28.5732 15.7134 10.7886
1 29.3669 14.9197 10.7886
1 29.2949 15.7184 9.94127
1 28.5354 14.9114 9.98251
1 0 14.126 10.7886
1 0.793701 13.3323 10.7886
1 0.823238 14.0991 9.98425
1 0.0550513 13.3191 9.97133
1 1.5874 14.126 10.7886
1 2.3811 13.3323 10.7886
1 2.37606 14.129 9.99202
1 1.62168 13.3382 9.98401
1 3.1748 14.126 10.7886
1 3.9685 13.3323 10.7886
1 3.98357 14.1186 9.97482
1 3.16852 13.3196 9.98219
1 4.7622 14.126 10.7886
1 5.5559 13.3323 10.7886
1 5.55228 14.1265 9.97608
1 4.76102 13.3029 10.013
1 6.3496 14.126 10.7886
1 7.1433 13.3323 10.7886
1 7.14671 14.1351 9.97999
1 6.33057 13.3273 9.99104
1 7.93701 14.126 10.7886
1 8.73071 13.3323 10.7886
1 8.7362 14.146 9.9927
1 7.94187 13.3541 9.98016
1 9.52441 14.126 10.7886
1 10.3181 13.3323 10.7886
1 10.2956 14.1618 9.99469
1 9.51753 13.3368 9.99933
1 11.1118 14.126 10.7886
1 11.9055 13.3323 10.7886
1 11.9037 14.1258 9.99666
1 11.1152 13.3407 9.99058
1 12.6992 14.126 10.7886
1 13.4929 13.3323 10.7886
1 13.4959 14.0983 9.97721
1 12.7137 13.3276 10.0002
1 14.2866 14.126 10.7886
1 15.0803 13.3323 10.7886
1 15.1187 14.115 9.98549
1 14.3001 13.3238 9.98318
1 15.874 14.126 10.7886
1 16.6677 13.3323 10.7886
1 16.6636 14.1312 9.99035
1 15.8857 13.3153 9.96619
1 17.4614 14.126 10.7886
1 18.2551 13.3323 10.7886
1 18.2423 14.1457 9.99739
1 17.4418 13.3161 9.9836
1 19.0488 14.126 10.7886
1 19.8425 13.3323 10.7886
1 19.8428 14.1187 9.9944
1 19.0306 13.3483 9.98968
1 20.6362 14.126 10.7886
1 21.4299 13.3323 10.7886
1 21.4301 14.1084 10.0113
1 20.6384 13.3163 9.99499
1 22.2236 14.126 10.7886
1 23.0173 13.3323 10.7886
1 23.0191 14.1357 10.0018
1 22.214 13.314 10.0103
1 23.811 14.126 10.7886
1 24.6047 13.3323 10.7886
1 24.5861 14.1433 10.0236
1 23.7972 13.3295 9.99645
1 25.3984 14.126 10.7886
1 26.1921 13.3323 10.7886
1 26.19 14.1222 9.99678
1 25.3794 13.3466 10.0031
1 26.9858 14.126 10.7886
1 27.7795 13.3323 10.7886
1 27.7694 14.1233 9.99378
1 26.9661 13.3785 9.99481
1 28.5732 14.126 10.7886
1 29.3669 13.3323 10.7886
1 29.2953 14.1496 9.98507
1 28.5307 13.3287 9.9985
1 0 12.5386 10.7886
1 0.793701 11.7449 10.7886
1 0.846752 12.5386 10.0114
1 0.0813673 11.7534 9.9559
1 1.5874 12.5386 10.7886
1 2.3811 11.7449 10.7886
1 2.37674 12.5516 9.98108
1 1.60404 11.7398 9.99471
1 3.1748 12.5386 10.7886
1 3.9685 11.7449 10.7886
1 3.9563 12.5427 9.96963
1 3.1636 11.7473 9.98991
1 4.7622 12.5386 10.7886
1 5.5559 11.7449 10.7886
1 5.57237 12.5324 9.98769
1 4.77355 11.7391 9.98257
1 6.3496 12.5386 10.7886
1 7.1433 11.7449 10.7886
1 7.14275 12.5557 9.9948
1 6.36061 11.7355 9.95697
1 7.93701 12.5386 10.7886
1 8.73071 11.7449 10.7886
1 8.70441 12.5376 10.0111
1 7.93433 11.7435 10.0006
1 9.52441 12.5386 10.7886
1 10.3181 11.7449 10.7886
1 10.3355 12.5262 9.97842
1 9.52374 11.7489 10.012
1 11.1118 12.5386 10.7886
1 11.9055 11.7449 10.7886
1 11.9055 12.5363 9.97341
1 11.1154 11.7424 9.98567
1 12.6992 12.5386 10.7886
1 13.4929 11.7449 10.7886
1 13.4873 12.5332 10.0177
1 12.6856 11.7387 9.98051
1 14.2866 12.5386 10.7886
1 15.0803 11.7449 10.7886
1 15.0991 12.5313 10.0094
1 14.2816 11.7554 9.98656
1 15.874 12.5386 10.7886
1 16.6677 11.7449 10.7886
1 16.6635 12.5197 10.0044
1 15.8816 11.7171 9.99413
1 17.4614 12.5386 10.7886
1 18.2551 11.7449 10.7886
1 18.2708 12.5297 9.96943
1 17.4568 11.7438 9.98675
1 19.0488 12.5386 10.7886
1 19.8425 11.7449 10.7886
1 19.8339 12.5635 9.98504
1 19.0734 11.7486 9.98724
1 20.6362 12.5386 10.7886
1 21.4299 11.7449 10.7886
1 21.4102 12.5202 9.99558
1 20.6345 11.7455 10.0103
1 22.2236 12.5386 10.7886
1 23.0173 11.7449 10.7886
1 22.991 12.5237 10
1 22.2025 11.771 10.0027
1 23.811 12.5386 10.7886
1 24.6047 11.7449 10.7886
1 24.5826 12.5466 10.001
1 23.7955 11.7326 9.99575
1 25.3984 12.5386 10.7886
1 26.1921 11.7449 10.7886
1 26.1651 12.5443 10.0129
1 25.3955 11.7421 9.97771
1 26.9858 12.5386 10.7886
1 27.7795 11.7449 10.7886
1 27.7441 12.5254 10.0015
1 26.9357 11.7381 10.0054
1 28.5732 12.5386 10.7886
1 29.3669 11.7449 10.7886
1 29.2915 12.5542 9.9675
1 28.5288 11.7147 9.9986
1 0 10.9512 10.7886
1 0.793701 10.1575 10.7886
1 0.809865 10.9586 9.97566
1 0.0835541 10.1525 9.94628
1 1.5874 10.9512 10.7886
1 2.3811 10.1575 10.7886
1 2.39059 10.9547 9.99776
1 1.59943 10.1603 10.0148
1 3.1748 10.9512 10.7886
1 3.9685 10.1575 10.7886
1 3.99688 10.954 9.97971
1 3.19022 10.1589 10.0044
1 4.7622 10.9512 10.7886
1 5.5559 10.1575 10.7886
1 5.55711 10.9532 9.97675
1 4.74815 10.1596 9.98541
1 6.3496 10.9512 10.7886
1 7.1433 10.1575 10.7886
1 7.15237 10.9481 9.98156
1 6.33578 10.1707 9.99697
1 7.93701 10.9512 10.7886
1 8.73071 10.1575 10.7886
1 8.72467 10.9648 9.98627
1 7.9274 10.1516 10.0138
1 9.52441 10.9512 10.7886
1 10.3181 10.1575 10.7886
1 10.3144 10.95 9.99261
1 9.51827 10.1717 10.0031
1 11.1118 10.9512 10.7886
1 11.9055 10.1575 10.7886
1 11.9163 10.9409 9.98928
1 11.1011 10.1589 9.99939
1 12.6992 10.9512 10.7886
1 13.4929 10.1575 10.7886
1 13.4929 10.9329 9.98435
1 12.6883 10.1274 9.97206
1 14.2866 10.9512 10.7886
1 15.0803 10.1575 10.7886
1 15.0733 10.9558 10.0057
1 14.2987 10.1558 9.96838
1 15.874 10.9512 10.7886
1 16.6677 10.1575 10.7886
1 16.6851 10.9594 9.9897
1 15.8669 10.1823 9.98272
1 17.4614 10.9512 10.7886
1 18.2551 10.1575 10.7886
1 18.2601 10.9671 10.0089
1 17.4537 10.1688 9.99292
1 19.0488 10.9512 10.7886
1 19.8425 10.1575 10.7886
1 19.8337 10.9301 9.97484
1 19.0524 10.1652 9.99135
1 20.6362 10.9512 10.7886
1 21.4299 10.1575 10.7886
1 21.4013 10.9807 10.0012
1 20.6451 10.1748 9.96973
1 22.2236 10.9512 10.7886
1 23.0173 10.1575 10.7886
1 23.002 10.9671 10.0203
1 22.2092 10.1946 9.99807
1 23.811 10.9512 10.7886
1 24.6047 10.1575 10.7886
1 24.5991 10.9426 9.98391
1 23.8014 10.1657 9.98801
1 25.3984 10.9512 10.7886
1 26.1921 10.1575 10.7886
1 26.1805 10.9494 10.0091
1 25.3848 10.1474 9.99963
1 26.9858 10.9512 10.7886
1 27.7795 10.1575 10.7886
1 27.7638 10.949 10.0035
1 26.9693 10.1344 10.0234
1 28.5732 10.9512 10.7886
1 29.3669 10.1575 10.7886
1 29.2955 10.9445 9.95365
1 28.5271 10.1407 9.96532
1 0 9.36379 10.7886
1 0.793701 8.57009 10.7886
1 0.824833 9.33665 9.9867
1 0.0666634 8.57448 9.98181
1 1.5874 9.36379 10.7886
1 2.3811 8.57009 10.7886
1 2.40097 9.37197 9.99664
1 1.60373 8.56242 10.0096
1 3.1748 9.36379 10.7886
1 3.9685 8.57009 10.7886
1 3.968 9.36291 10.0313
1 3.18471 8.56086 10.023
1 4.7622 9.36379 10.7886
1 5.5559 8.57009 10.7886
1 5.56202 9.34822 10.0224
1 4.75539 8.58001 9.99553
1 6.3496 9.36379 10.7886
1 7.1433 8.57009 10.7886
1 7.12307 9.37323 10.0135
1 6.35788 8.54652 10.0045
1 7.93701 9.36379 10.7886
1 8.73071 8.57009 10.7886
1 8.73889 9.38839 9.99309
1 7.9376 8.56594 9.98219
1 9.52441 9.36379 10.7886
1 10.3181 8.57009 10.7886
1 10.3139 9.37881 9.98396
1 9.50822 8.5745 10.0046
1 11.1118 9.36379 10.7886
1 11.9055 8.57009 10.7886
1 11.8853 9.35943 10.0093
1 11.105 8.57312 9.99208
1 12.6992 9.36379 10.7886
1 13.4929 8.57009 10.7886
1 13.5068 9.3874 10.0358
1 12.697 8.57496 10.01
1 14.2866 9.36379 10.7886
1 15.0803 8.57009 10.7886
1 15.0818 9.35474 9.99146
1 14.2962 8.55168 10.0097
1 15.874 9.36379 10.7886
1 16.6677 8.57009 10.7886
1 16.6884 9.37226 10.0185
1 15.8875 8.5728 10.0146
1 17.4614 9.36379 10.7886
1 18.2551 8.57009 10.7886
1 18.2451 9.36802 9.96299
1 17.4651 8.57639 9.96811
1 19.0488 9.36379 10.7886
1 19.8425 8.57009 10.7886
1 19.855 9.35283 9.97605
1 19.0504 8.56268 9.98663
1 20.6362 9.36379 10.7886
1 21.4299 8.57009 10.7886
1 21.4189 9.37684 10.025
1 20.6196 8.57058 10.0109
1 22.2236 9.36379 10.7886
1 23.0173 8.57009 10.7886
1 23.0137 9.3624 9.99672
1 22.2173 8.58069 10.0222
1 23.811 9.36379 10.7886
1 24.6047 8.57009 10.7886
1 24.5967 9.38198 9.97936
1 23.8136 8.57732 10.0018
1 25.3984 9.36379 10.7886
1 26.1921 8.57009 10.7886
1 26.2173 9.35231 9.98974
1 25.3955 8.55568 10.0049
1 26.9858 9.36379 10.7886
1 27.7795 8.57009 10.7886
1 27.7863 9.34656 9.9888
1 26.9909 8.55734 9.99171
1 28.5732 9.36379 10.7886
1 29.3669 8.57009 10.7886
1 29.3051 9.37933 9.97705
1 28.5531 8.58519 9.97837
1 0 7.77639 10.7886
1 0.793701 6.98268 10.7886
1 0.854135 7.78729 9.99362
1 0.076065 6.98724 9.96068
1 1.5874 7.77639 10.7886
1 2.3811 6.98268 10.7886
1 2.39707 7.76026 9.99917
1 1.61919 6.96861 9.99264
1 3.1748 7.77639 10.7886
1 3.9685 6.98268 10.7886
1 3.97421 7.76749 10.0236
1 3.16349 6.95217 10.0096
1 4.7622 7.77639 10.7886
1 5.5559 6.98268 10.7886
1 5.55415 7.76498 9.99615
1 4.74591 6.98794 9.98467
1 6.3496 7.77639 10.7886
1 7.1433 6.98268 10.7886
1 7.152 7.7808 9.98174
1 6.36258 6.97234 10.0013
1 7.93701 7.77639 10.7886
1 8.73071 6.98268 10.7886
1 8.74148 7.77653 9.98592
1 7.96636 6.97608 10.0165
1 9.52441 7.77639 10.7886
1 10.3181 6.98268 10.7886
1 10.3429 7.78968 9.97866
1 9.53502 6.98649 10.0004
1 11.1118 7.77639 10.7886
1 11.9055 6.98268 10.7886
1 11.891 7.78108 10.0031
1 11.1341 6.99538 10.0081
1 12.6992 7.77639 10.7886
1 13.4929 6.98268 10.7886
1 13.4964 7.77602 9.97957
1 12.6988 6.98202 9.99513
1 14.2866 7.77639 10.7886
1 15.0803 6.98268 10.7886
1 15.0741 7.76842 9.97865
1 14.2872 6.97099 10.0029
1 15.874 7.77639 10.7886
1 16.6677 6.98268 10.7886
1 16.6727 7.75856 10.0085
1 15.8774 7.00201 9.9863
1 17.4614 7.77639 10.7886
1 18.2551 6.98268 10.7886
1 18.2654 7.80394 10.0206
1 17.4825 7.00689 9.99579
1 19.0488 7.77639 10.7886
1 19.8425 6.98268 10.7886
1 19.8476 7.75908 10.006
1 19.0349 6.98665 10.0033
1 20.6362 7.77639 10.7886
1 21.4299 6.98268 10.7886
1 21.4185 7.77341 10.0114
1 20.6308 6.96999 9.99366
1 22.2236 7.77639 10.7886
1 23.0173 6.98268 10.7886
1 23.0119 7.77633 10.0042
1 22.2052 6.97407 9.97629
1 23.811 7.77639 10.7886
1 24.6047 6.98268 10.7886
1 24.6017 7.79123 10.006
1 23.8451 6.97035 10.0256
1 25.3984 7.77639 10.7886
1 26.1921 6.98268 10.7886
1 26.1642 7.78227 10.0058
1 25.3928 6.99301 9.98341
1 26.9858 7.77639 10.7886
1 27.7795 6.98268 10.7886
1 27.7705 7.78518 10.0254
1 26.9627 6.99236 9.97953
1 28.5732 7.77639 10.7886
1 29.3669 6.98268 10.7886
1 29.3034 7.77171 9.97533
1 28.5574 6.97197 9.97858
1 0 6.18898 10.7886
1 0.793701 5.39528 10.7886
1 0.803817 6.16542 9.98299
1 0.0501416 5.42136 9.97932
1 1.5874 6.18898 10.7886
1 2.3811 5.39528 10.7886
1 2.40685 6.15937 10.0058
1 1.5952 5.39814 9.98571
1 3.1748 6.18898 10.7886
1 3.9685 5.39528 10.7886
1 3.95048 6.16528 9.99223
1 3.20235 5.39955 10.0104
1 4.7622 6.18898 10.7886
1 5.5559 5.39528 10.7886
1 5.55057 6.18122 10.0064
1 4.75738 5.41036 9.98348
1 6.3496 6.18898 10.7886
1 7.1433 5.39528 10.7886
1 7.13921 6.22672 9.98764
1 6.34951 5.40511 9.98032
1 7.93701 6.18898 10.7886
1 8.73071 5.39528 10.7886
1 8.76676 6.17829 9.96559
1 7.92287 5.39918 9.98703
1 9.52441 6.18898 10.7886