9376
Atoms. Timestep: 4000000
1 30 3.55271e-15 13.5813
1 0.793701 29.2063 13.5813
1 0.83679 29.9439 12.7373
1 0.0828738 29.1699 12.7403
1 1.5874 3.55271e-15 13.5813
1 2.3811 29.2063 13.5813
1 2.39676 29.904 12.7288
1 1.60747 29.1527 12.7686
1 3.1748 3.55271e-15 13.5813
1 3.9685 29.2063 13.5813
1 3.97419 29.9456 12.7564
1 3.17402 29.1912 12.7848
1 4.7622 3.55271e-15 13.5813
1 5.5559 29.2063 13.5813
1 5.56203 29.9395 12.742
1 4.77426 29.196 12.7605
1 6.3496 3.55271e-15 13.5813
1 7.1433 29.2063 13.5813
1 7.15879 29.9164 12.7722
1 6.36922 29.1832 12.7703
1 7.93701 3.55271e-15 13.5813
1 8.73071 29.2063 13.5813
1 8.74683 29.9032 12.7252
1 7.92251 29.1658 12.8212
1 9.52441 3.55271e-15 13.5813
1 10.3181 29.2063 13.5813
1 10.3253 29.9284 12.7302
1 9.54214 29.2027 12.7465
1 11.1118 3.55271e-15 13.5813
1 11.9055 29.2063 13.5813
1 11.9085 29.9218 12.7603
1 11.0931 29.1884 12.7652
1 12.6992 3.55271e-15 13.5813
1 13.4929 29.2063 13.5813
1 13.495 29.9148 12.7634
1 12.725 29.1672 12.7819
1 14.2866 3.55271e-15 13.5813
1 15.0803 29.2063 13.5813
1 15.0729 29.9437 12.7262
1 14.2946 29.1559 12.7849
1 15.874 3.55271e-15 13.5813
1 16.6677 29.2063 13.5813
1 16.6784 29.9475 12.737
1 15.8425 29.1874 12.8052
1 17.4614 3.55271e-15 13.5813
1 18.2551 29.2063 13.5813
1 18.2341 29.9363 12.7618
1 17.4777 29.1905 12.7772
1 19.0488 3.55271e-15 13.5813
1 19.8425 29.2063 13.5813
1 19.8467 29.938 12.7623
1 19.0332 29.1833 12.7771
1 20.6362 3.55271e-15 13.5813
1 21.4299 29.2063 13.5813
1 21.4381 29.925 12.7471
1 20.6369 29.1702 12.7667
1 22.2236 3.55271e-15 13.5813
1 23.0173 29.2063 13.5813
1 23.0134 29.9387 12.7582
1 22.2228 29.1558 12.7622
1 23.811 3.55271e-15 13.5813
1 24.6047 29.2063 13.5813
1 24.5951 29.9368 12.7697
1 23.8191 29.1962 12.7961
1 25.3984 3.55271e-15 13.5813
1 26.1921 29.2063 13.5813
1 26.1822 29.9554 12.757
1 25.3992 29.1801 12.7811
1 26.9858 3.55271e-15 13.5813
1 27.7795 29.2063 13.5813
1 27.755 29.919 12.7734
1 26.9707 29.1833 12.7796
1 28.5732 3.55271e-15 13.5813
1 29.3669 29.2063 13.5813
1 29.2963 29.9044 12.723
1 28.5227 29.1807 12.7524
1 30 28.4126 13.5813
1 0.793701 27.6189 13.5813
1 0.803228 28.3923 12.8144
1 0.0713247 27.6186 12.7427
1 1.5874 28.4126 13.5813
1 2.3811 27.6189 13.5813
1 2.40667 28.4056 12.8098
1 1.58116 27.634 12.7864
1 3.1748 28.4126 13.5813
1 3.9685 27.6189 13.5813
1 3.97104 28.4015 12.7666
1 3.1569 27.6142 12.7558
1 4.7622 28.4126 13.5813
1 5.5559 27.6189 13.5813
1 5.55231 28.4068 12.8051
1 4.74505 27.5937 12.7762
1 6.3496 28.4126 13.5813
1 7.1433 27.6189 13.5813
1 7.16361 28.3781 12.814
1 6.33944 27.6203 12.7921
1 7.93701 28.4126 13.5813
1 8.73071 27.6189 13.5813
1 8.72895 28.401 12.7842
1 7.94384 27.6288 12.783
1 9.52441 28.4126 13.5813
1 10.3181 27.6189 13.5813
1 10.3097 28.3925 12.7532
1 9.52212 27.6044 12.8087
1 11.1118 28.4126 13.5813
1 11.9055 27.6189 13.5813
1 11.8859 28.3878 12.791
1 11.1072 27.6026 12.8054
1 12.6992 28.4126 13.5813
1 13.4929 27.6189 13.5813
1 13.4934 28.4087 12.7905
1 12.6744 27.6344 12.7991
1 14.2866 28.4126 13.5813
1 15.0803 27.6189 13.5813
1 15.0747 28.393 12.765
1 14.2933 27.6166 12.7742
1 15.874 28.4126 13.5813
1 16.6677 27.6189 13.5813
1 16.6744 28.4011 12.7862
1 15.8938 27.6301 12.789
1 17.4614 28.4126 13.5813
1 18.2551 27.6189 13.5813
1 18.249 28.4049 12.7951
1 17.4432 27.5776 12.8091
1 19.0488 28.4126 13.5813
1 19.8425 27.6189 13.5813
1 19.828 28.397 12.764
1 19.0438 27.5965 12.774
1 20.6362 28.4126 13.5813
1 21.4299 27.6189 13.5813
1 21.4178 28.4143 12.7886
1 20.6335 27.6245 12.8085
1 22.2236 28.4126 13.5813
1 23.0173 27.6189 13.5813
1 23.0224 28.3823 12.7878
1 22.2223 27.6028 12.7887
1 23.811 28.4126 13.5813
1 24.6047 27.6189 13.5813
1 24.5991 28.416 12.7834
1 23.8202 27.5959 12.779
1 25.3984 28.4126 13.5813
1 26.1921 27.6189 13.5813
1 26.176 28.3895 12.765
1 25.3673 27.5749 12.8278
1 26.9858 28.4126 13.5813
1 27.7795 27.6189 13.5813
1 27.7483 28.3591 12.7869
1 26.9591 27.6022 12.7974
1 28.5732 28.4126 13.5813
1 29.3669 27.6189 13.5813
1 29.3113 28.4097 12.7407
1 28.5272 27.6136 12.7784
1 30 26.8252 13.5813
1 0.793701 26.0315 13.5813
1 0.812353 26.8074 12.799
1 0.0538918 26.0325 12.7732
1 1.5874 26.8252 13.5813
1 2.3811 26.0315 13.5813
1 2.41636 26.7998 12.8008
1 1.5879 26.0369 12.8022
1 3.1748 26.8252 13.5813
1 3.9685 26.0315 13.5813
1 3.9707 26.8102 12.7916
1 3.16887 26.0267 12.7855
1 4.7622 26.8252 13.5813
1 5.5559 26.0315 13.5813
1 5.53398 26.8397 12.7817
1 4.73364 26.0304 12.7896
1 6.3496 26.8252 13.5813
1 7.1433 26.0315 13.5813
1 7.12448 26.8549 12.8027
1 6.32325 26.0308 12.7894
1 7.93701 26.8252 13.5813
1 8.73071 26.0315 13.5813
1 8.73367 26.8229 12.8042
1 7.91465 26.0473 12.8225
1 9.52441 26.8252 13.5813
1 10.3181 26.0315 13.5813
1 10.3523 26.8223 12.776
1 9.51464 26.0114 12.7826
1 11.1118 26.8252 13.5813
1 11.9055 26.0315 13.5813
1 11.9333 26.8513 12.7535
1 11.1082 26.0337 12.7709
1 12.6992 26.8252 13.5813
1 13.4929 26.0315 13.5813
1 13.4815 26.8402 12.7984
1 12.6622 26.0528 12.7887
1 14.2866 26.8252 13.5813
1 15.0803 26.0315 13.5813
1 15.1194 26.8276 12.7923
1 14.289 26.0611 12.7954
1 15.874 26.8252 13.5813
1 16.6677 26.0315 13.5813
1 16.646 26.8118 12.7535
1 15.8732 26.0039 12.7769
1 17.4614 26.8252 13.5813
1 18.2551 26.0315 13.5813
1 18.254 26.821 12.8132
1 17.4491 26.0061 12.786
1 19.0488 26.8252 13.5813
1 19.8425 26.0315 13.5813
1 19.8462 26.825 12.8037
1 19.0467 26.0288 12.8154
1 20.6362 26.8252 13.5813
1 21.4299 26.0315 13.5813
1 21.4404 26.8153 12.8042
1 20.6423 26.0136 12.7648
1 22.2236 26.8252 13.5813
1 23.0173 26.0315 13.5813
1 23.0448 26.8053 12.7981
1 22.2261 26.0211 12.7837
1 23.811 26.8252 13.5813
1 24.6047 26.0315 13.5813
1 24.592 26.8292 12.7999
1 23.8116 25.9799 12.7748
1 25.3984 26.8252 13.5813
1 26.1921 26.0315 13.5813
1 26.1727 26.8008 12.796
1 25.3797 26.0391 12.8083
1 26.9858 26.8252 13.5813
1 27.7795 26.0315 13.5813
1 27.7638 26.8191 12.8043
1 26.9853 26.0167 12.8
1 28.5732 26.8252 13.5813
1 29.3669 26.0315 13.5813
1 29.3077 26.811 12.7639
1 28.5403 26.0172 12.7647
1 30 25.2378 13.5813
1 0.793701 24.4441 13.5813
1 0.825825 25.2669 12.7773
1 0.0408995 24.4592 12.7539
1 1.5874 25.2378 13.5813
1 2.3811 24.4441 13.5813
1 2.39784 25.234 12.7927
1 1.60426 24.4675 12.7837
1 3.1748 25.2378 13.5813
1 3.9685 24.4441 13.5813
1 3.96553 25.2195 12.7774
1 3.17562 24.4304 12.7836
1 4.7622 25.2378 13.5813
1 5.5559 24.4441 13.5813
1 5.5313 25.2425 12.7979
1 4.7556 24.4348 12.7439
1 6.3496 25.2378 13.5813
1 7.1433 24.4441 13.5813
1 7.1513 25.233 12.7887
1 6.3752 24.4056 12.7886
1 7.93701 25.2378 13.5813
1 8.73071 24.4441 13.5813
1 8.72554 25.2481 12.7898
1 7.92988 24.4398 12.7886
1 9.52441 25.2378 13.5813
1 10.3181 24.4441 13.5813
1 10.3122 25.249 12.755
1 9.52821 24.4391 12.8116
1 11.1118 25.2378 13.5813
1 11.9055 24.4441 13.5813
1 11.8936 25.249 12.8031
1 11.105 24.4627 12.8116
1 12.6992 25.2378 13.5813
1 13.4929 24.4441 13.5813
1 13.5084 25.2604 12.7751
1 12.7089 24.4497 12.8047
1 14.2866 25.2378 13.5813
1 15.0803 24.4441 13.5813
1 15.0879 25.2388 12.7722
1 14.2959 24.4382 12.7848
1 15.874 25.2378 13.5813
1 16.6677 24.4441 13.5813
1 16.662 25.2121 12.8015
1 15.8848 24.4251 12.7838
1 17.4614 25.2378 13.5813
1 18.2551 24.4441 13.5813
1 18.2697 25.2272 12.7918
1 17.4878 24.4351 12.8188
1 19.0488 25.2378 13.5813
1 19.8425 24.4441 13.5813
1 19.835 25.234 12.7861
1 19.0468 24.4203 12.7752
1 20.6362 25.2378 13.5813
1 21.4299 24.4441 13.5813
1 21.4217 25.2477 12.7899
1 20.6043 24.453 12.7747
1 22.2236 25.2378 13.5813
1 23.0173 24.4441 13.5813
1 23.01 25.2483 12.7741
1 22.2219 24.4461 12.7887
1 23.811 25.2378 13.5813
1 24.6047 24.4441 13.5813
1 24.6029 25.2226 12.7719
1 23.8019 24.4536 12.7784
1 25.3984 25.2378 13.5813
1 26.1921 24.4441 13.5813
1 26.1375 25.2262 12.7985
1 25.365 24.4238 12.7688
1 26.9858 25.2378 13.5813
1 27.7795 24.4441 13.5813
1 27.7613 25.2176 12.7493
1 26.9842 24.4328 12.7813
1 28.5732 25.2378 13.5813
1 29.3669 24.4441 13.5813
1 29.2711 25.2516 12.7376
1 28.5317 24.4456 12.7751
1 30 23.6504 13.5813
1 0.793701 22.8567 13.5813
1 0.827733 23.6673 12.7673
1 0.0479587 22.8565 12.787
1 1.5874 23.6504 13.5813
1 2.3811 22.8567 13.5813
1 2.41821 23.6579 12.786
1 1.57448 22.8521 12.7979
1 3.1748 23.6504 13.5813
1 3.9685 22.8567 13.5813
1 3.96892 23.6365 12.7928
1 3.17909 22.8406 12.8297
1 4.7622 23.6504 13.5813
1 5.5559 22.8567 13.5813
1 5.55703 23.6489 12.7943
1 4.77231 22.8547 12.7989
1 6.3496 23.6504 13.5813
1 7.1433 22.8567 13.5813
1 7.16009 23.6262 12.7868
1 6.34004 22.8737 12.7651
1 7.93701 23.6504 13.5813
1 8.73071 22.8567 13.5813
1 8.71217 23.6543 12.7792
1 7.90662 22.8485 12.7874
1 9.52441 23.6504 13.5813
1 10.3181 22.8567 13.5813
1 10.3176 23.672 12.79
1 9.53928 22.8497 12.7592
1 11.1118 23.6504 13.5813
1 11.9055 22.8567 13.5813
1 11.9014 23.6474 12.7832
1 11.1254 22.856 12.8014
1 12.6992 23.6504 13.5813
1 13.4929 22.8567 13.5813
1 13.4955 23.6454 12.7856
1 12.7055 22.8605 12.7878
1 14.2866 23.6504 13.5813
1 15.0803 22.8567 13.5813
1 15.0905 23.6445 12.7933
1 14.2711 22.8696 12.7777
1 15.874 23.6504 13.5813
1 16.6677 22.8567 13.5813
1 16.6756 23.6457 12.8165
1 15.8722 22.8504 12.7733
1 17.4614 23.6504 13.5813
1 18.2551 22.8567 13.5813
1 18.2677 23.6471 12.7752
1 17.4602 22.8511 12.793
1 19.0488 23.6504 13.5813
1 19.8425 22.8567 13.5813
1 19.8154 23.6666 12.7964
1 19.0569 22.8576 12.7699
1 20.6362 23.6504 13.5813
1 21.4299 22.8567 13.5813
1 21.4364 23.6563 12.7767
1 20.6062 22.8636 12.7769
1 22.2236 23.6504 13.5813
1 23.0173 22.8567 13.5813
1 23.0111 23.6391 12.7685
1 22.2001 22.8469 12.7996
1 23.811 23.6504 13.5813
1 24.6047 22.8567 13.5813
1 24.573 23.6455 12.7732
1 23.8047 22.8352 12.7664
1 25.3984 23.6504 13.5813
1 26.1921 22.8567 13.5813
1 26.179 23.6599 12.7838
1 25.3648 22.8446 12.8095
1 26.9858 23.6504 13.5813
1 27.7795 22.8567 13.5813
1 27.7983 23.6472 12.7818
1 26.9589 22.8792 12.7708
1 28.5732 23.6504 13.5813
1 29.3669 22.8567 13.5813
1 29.2769 23.6567 12.7688
1 28.5311 22.8594 12.7812
1 30 22.063 13.5813
1 0.793701 21.2693 13.5813
1 0.836101 22.0399 12.7921
1 0.0518414 21.2755 12.7629
1 1.5874 22.063 13.5813
1 2.3811 21.2693 13.5813
1 2.39229 22.0656 12.7749
1 1.59973 21.2475 12.7763
1 3.1748 22.063 13.5813
1 3.9685 21.2693 13.5813
1 3.98149 22.0617 12.7853
1 3.18187 21.2596 12.808
1 4.7622 22.063 13.5813
1 5.5559 21.2693 13.5813
1 5.56327 22.0513 12.7863
1 4.76354 21.276 12.7814
1 6.3496 22.063 13.5813
1 7.1433 21.2693 13.5813
1 7.12464 22.0651 12.8047
1 6.35749 21.2757 12.7638
1 7.93701 22.063 13.5813
1 8.73071 21.2693 13.5813
1 8.70869 22.077 12.7946
1 7.92864 21.2661 12.7637
1 9.52441 22.063 13.5813
1 10.3181 21.2693 13.5813
1 10.3269 22.0713 12.7855
1 9.54442 21.2659 12.7852
1 11.1118 22.063 13.5813
1 11.9055 21.2693 13.5813
1 11.9147 22.0468 12.787
1 11.1001 21.2609 12.8149
1 12.6992 22.063 13.5813
1 13.4929 21.2693 13.5813
1 13.5358 22.0629 12.799
1 12.7365 21.2563 12.7882
1 14.2866 22.063 13.5813
1 15.0803 21.2693 13.5813
1 15.0823 22.0374 12.7828
1 14.3094 21.2528 12.7858
1 15.874 22.063 13.5813
1 16.6677 21.2693 13.5813
1 16.6653 22.0693 12.7848
1 15.8872 21.2542 12.7795
1 17.4614 22.063 13.5813
1 18.2551 21.2693 13.5813
1 18.2718 22.088 12.811
1 17.4707 21.259 12.8005
1 19.0488 22.063 13.5813
1 19.8425 21.2693 13.5813
1 19.8448 22.049 12.7733
1 19.0375 21.2814 12.8042
1 20.6362 22.063 13.5813
1 21.4299 21.2693 13.5813
1 21.4338 22.0565 12.7703
1 20.644 21.2656 12.7758
1 22.2236 22.063 13.5813
1 23.0173 21.2693 13.5813
1 23.0032 22.0636 12.7936
1 22.2149 21.2784 12.7739
1 23.811 22.063 13.5813
1 24.6047 21.2693 13.5813
1 24.5832 22.0331 12.7941
1 23.7864 21.2509 12.7756
1 25.3984 22.063 13.5813
1 26.1921 21.2693 13.5813
1 26.1954 22.0812 12.7906
1 25.3949 21.2506 12.8209
1 26.9858 22.063 13.5813
1 27.7795 21.2693 13.5813
1 27.771 22.0826 12.7892
1 26.9947 21.2414 12.7886
1 28.5732 22.063 13.5813
1 29.3669 21.2693 13.5813
1 29.3079 22.0486 12.771
1 28.5417 21.2931 12.7902
1 30 20.4756 13.5813
1 0.793701 19.6819 13.5813
1 0.828749 20.4799 12.7955
1 0.0598206 19.7008 12.7576
1 1.5874 20.4756 13.5813
1 2.3811 19.6819 13.5813
1 2.36118 20.4804 12.7802
1 1.58825 19.6609 12.7876
1 3.1748 20.4756 13.5813
1 3.9685 19.6819 13.5813
1 3.95506 20.4883 12.7808
1 3.16552 19.7017 12.7847
1 4.7622 20.4756 13.5813
1 5.5559 19.6819 13.5813
1 5.5504 20.5045 12.7942
1 4.76612 19.6976 12.7897
1 6.3496 20.4756 13.5813
1 7.1433 19.6819 13.5813
1 7.13336 20.447 12.7701
1 6.35867 19.7062 12.7862
1 7.93701 20.4756 13.5813
1 8.73071 19.6819 13.5813
1 8.71707 20.4528 12.7908
1 7.9512 19.6613 12.781
1 9.52441 20.4756 13.5813
1 10.3181 19.6819 13.5813
1 10.313 20.4713 12.7855
1 9.54261 19.6723 12.8002
1 11.1118 20.4756 13.5813
1 11.9055 19.6819 13.5813
1 11.9045 20.4654 12.7981
1 11.128 19.6938 12.7996
1 12.6992 20.4756 13.5813
1 13.4929 19.6819 13.5813
1 13.5164 20.4687 12.7941
1 12.7067 19.6939 12.7829
1 14.2866 20.4756 13.5813
1 15.0803 19.6819 13.5813
1 15.0932 20.4772 12.7698
1 14.2657 19.6816 12.811
1 15.874 20.4756 13.5813
1 16.6677 19.6819 13.5813
1 16.6721 20.4784 12.8018
1 15.8961 19.6754 12.7894
1 17.4614 20.4756 13.5813
1 18.2551 19.6819 13.5813
1 18.2586 20.4702 12.7946
1 17.4672 19.7018 12.7826
1 19.0488 20.4756 13.5813
1 19.8425 19.6819 13.5813
1 19.8474 20.4982 12.7877
1 19.0287 19.6957 12.7864
1 20.6362 20.4756 13.5813
1 21.4299 19.6819 13.5813
1 21.4371 20.4684 12.7505
1 20.6272 19.6797 12.7789
1 22.2236 20.4756 13.5813
1 23.0173 19.6819 13.5813
1 23.0064 20.4575 12.786
1 22.2299 19.6631 12.7616
1 23.811 20.4756 13.5813
1 24.6047 19.6819 13.5813
1 24.6094 20.4686 12.7905
1 23.8228 19.6878 12.7742
1 25.3984 20.4756 13.5813
1 26.1921 19.6819 13.5813
1 26.1795 20.4573 12.8008
1 25.3945 19.6745 12.7863
1 26.9858 20.4756 13.5813
1 27.7795 19.6819 13.5813
1 27.7689 20.4589 12.7715
1 26.9609 19.7025 12.7797
1 28.5732 20.4756 13.5813
1 29.3669 19.6819 13.5813
1 29.277 20.4842 12.7659
1 28.5292 19.6929 12.7869
1 30 18.8882 13.5813
1 0.793701 18.0945 13.5813
1 0.82946 18.9021 12.7817
1 0.0545845 18.0792 12.7726
1 1.5874 18.8882 13.5813
1 2.3811 18.0945 13.5813
1 2.36879 18.8842 12.7758
1 1.61236 18.0946 12.772
1 3.1748 18.8882 13.5813
1 3.9685 18.0945 13.5813
1 3.96496 18.9058 12.7907
1 3.18944 18.1305 12.7956
1 4.7622 18.8882 13.5813
1 5.5559 18.0945 13.5813
1 5.58677 18.8931 12.7886
1 4.74552 18.0965 12.8045
1 6.3496 18.8882 13.5813
1 7.1433 18.0945 13.5813
1 7.12826 18.8922 12.7674
1 6.35434 18.1092 12.7776
1 7.93701 18.8882 13.5813
1 8.73071 18.0945 13.5813
1 8.75451 18.9022 12.7714
1 7.95915 18.1375 12.7996
1 9.52441 18.8882 13.5813
1 10.3181 18.0945 13.5813
1 10.3232 18.8809 12.791
1 9.53386 18.1021 12.772
1 11.1118 18.8882 13.5813
1 11.9055 18.0945 13.5813
1 11.8981 18.9113 12.7772
1 11.1067 18.1121 12.8049
1 12.6992 18.8882 13.5813
1 13.4929 18.0945 13.5813
1 13.4944 18.8817 12.8031
1 12.7069 18.1154 12.7886
1 14.2866 18.8882 13.5813
1 15.0803 18.0945 13.5813
1 15.0666 18.9025 12.8152
1 14.2741 18.0709 12.7949
1 15.874 18.8882 13.5813
1 16.6677 18.0945 13.5813
1 16.6874 18.8817 12.8166
1 15.9056 18.1218 12.8064
1 17.4614 18.8882 13.5813
1 18.2551 18.0945 13.5813
1 18.2583 18.8739 12.7926
1 17.4738 18.0924 12.7829
1 19.0488 18.8882 13.5813
1 19.8425 18.0945 13.5813
1 19.8584 18.8956 12.7449
1 19.0344 18.1022 12.7749
1 20.6362 18.8882 13.5813
1 21.4299 18.0945 13.5813
1 21.44 18.8802 12.7688
1 20.6299 18.0809 12.7449
1 22.2236 18.8882 13.5813
1 23.0173 18.0945 13.5813
1 23.0169 18.8808 12.7721
1 22.2185 18.0961 12.7582
1 23.811 18.8882 13.5813
1 24.6047 18.0945 13.5813
1 24.5895 18.8923 12.7952
1 23.8124 18.1111 12.7832
1 25.3984 18.8882 13.5813
1 26.1921 18.0945 13.5813
1 26.1862 18.889 12.7895
1 25.3989 18.0963 12.7874
1 26.9858 18.8882 13.5813
1 27.7795 18.0945 13.5813
1 27.7185 18.8726 12.7801
1 26.9373 18.0898 12.7792
1 28.5732 18.8882 13.5813
1 29.3669 18.0945 13.5813
1 29.3104 18.9006 12.7335
1 28.5305 18.0867 12.7905
1 30 17.3008 13.5813
1 0.793701 16.5071 13.5813
1 0.849545 17.2775 12.7686
1 0.0506868 16.5136 12.7408
1 1.5874 17.3008 13.5813
1 2.3811 16.5071 13.5813
1 2.42328 17.3142 12.7921
1 1.65767 16.5055 12.7761
1 3.1748 17.3008 13.5813
1 3.9685 16.5071 13.5813
1 3.96944 17.304 12.8086
1 3.17003 16.5096 12.7984
1 4.7622 17.3008 13.5813
1 5.5559 16.5071 13.5813
1 5.55573 17.326 12.8101
1 4.74802 16.5194 12.7917
1 6.3496 17.3008 13.5813
1 7.1433 16.5071 13.5813
1 7.18944 17.3323 12.7937
1 6.36921 16.5336 12.8176
1 7.93701 17.3008 13.5813
1 8.73071 16.5071 13.5813
1 8.72285 17.3144 12.7983
1 7.96715 16.4938 12.7736
1 9.52441 17.3008 13.5813
1 10.3181 16.5071 13.5813
1 10.3134 17.3172 12.796
1 9.50066 16.5081 12.7963
1 11.1118 17.3008 13.5813
1 11.9055 16.5071 13.5813
1 11.9268 17.3247 12.7755
1 11.1359 16.5241 12.8019
1 12.6992 17.3008 13.5813
1 13.4929 16.5071 13.5813
1 13.4712 17.3055 12.7876
1 12.6959 16.5107 12.8014
1 14.2866 17.3008 13.5813
1 15.0803 16.5071 13.5813
1 15.0858 17.3209 12.786
1 14.2915 16.516 12.7903
1 15.874 17.3008 13.5813
1 16.6677 16.5071 13.5813
1 16.6814 17.3079 12.7951
1 15.8761 16.5225 12.7964
1 17.4614 17.3008 13.5813
1 18.2551 16.5071 13.5813
1 18.2518 17.2851 12.7781
1 17.4724 16.5138 12.7825
1 19.0488 17.3008 13.5813
1 19.8425 16.5071 13.5813
1 19.8415 17.3192 12.8038
1 19.0473 16.5056 12.7946
1 20.6362 17.3008 13.5813
1 21.4299 16.5071 13.5813
1 21.4351 17.3138 12.7695
1 20.6484 16.5026 12.7544
1 22.2236 17.3008 13.5813
1 23.0173 16.5071 13.5813
1 23.0404 17.2761 12.7961
1 22.2108 16.5123 12.7959
1 23.811 17.3008 13.5813
1 24.6047 16.5071 13.5813
1 24.5885 17.2997 12.7633
1 23.8098 16.4815 12.7795
1 25.3984 17.3008 13.5813
1 26.1921 16.5071 13.5813
1 26.1753 17.3099 12.7812
1 25.3881 16.5108 12.7745
1 26.9858 17.3008 13.5813
1 27.7795 16.5071 13.5813
1 27.7431 17.2805 12.7905
1 26.9873 16.523 12.7792
1 28.5732 17.3008 13.5813
1 29.3669 16.5071 13.5813
1 29.2774 17.2987 12.7764
1 28.5539 16.5065 12.7884
1 30 15.7134 13.5813
1 0.793701 14.9197 13.5813
1 0.827624 15.7213 12.7822
1 0.0800672 14.9088 12.757
1 1.5874 15.7134 13.5813
1 2.3811 14.9197 13.5813
1 2.37888 15.6808 12.7667
1 1.62359 14.9001 12.7917
1 3.1748 15.7134 13.5813
1 3.9685 14.9197 13.5813
1 3.95995 15.7014 12.7762
1 3.18558 14.9027 12.7955
1 4.7622 15.7134 13.5813
1 5.5559 14.9197 13.5813
1 5.55667 15.7318 12.8088
1 4.76402 14.9359 12.8159
1 6.3496 15.7134 13.5813
1 7.1433 14.9197 13.5813
1 7.15302 15.7179 12.8042
1 6.36056 14.9441 12.7718
1 7.93701 15.7134 13.5813
1 8.73071 14.9197 13.5813
1 8.74944 15.7054 12.7849
1 7.94504 14.9308 12.7918
1 9.52441 15.7134 13.5813
1 10.3181 14.9197 13.5813
1 10.3323 15.7038 12.774
1 9.51518 14.9063 12.8154
1 11.1118 15.7134 13.5813
1 11.9055 14.9197 13.5813
1 11.8928 15.7185 12.784
1 11.1025 14.9112 12.7721
1 12.6992 15.7134 13.5813
1 13.4929 14.9197 13.5813
1 13.4619 15.7234 12.7625
1 12.6619 14.8945 12.7688
1 14.2866 15.7134 13.5813
1 15.0803 14.9197 13.5813
1 15.0691 15.7261 12.7612
1 14.2855 14.8989 12.7778
1 15.874 15.7134 13.5813
1 16.6677 14.9197 13.5813
1 16.6562 15.7205 12.7971
1 15.8903 14.9092 12.7747
1 17.4614 15.7134 13.5813
1 18.2551 14.9197 13.5813
1 18.2284 15.698 12.7841
1 17.4752 14.913 12.7849
1 19.0488 15.7134 13.5813
1 19.8425 14.9197 13.5813
1 19.837 15.6809 12.7737
1 19.0398 14.8965 12.7724
1 20.6362 15.7134 13.5813
1 21.4299 14.9197 13.5813
1 21.4305 15.7162 12.7849
1 20.6373 14.9498 12.7819
1 22.2236 15.7134 13.5813
1 23.0173 14.9197 13.5813
1 23.0315 15.7143 12.7672
1 22.222 14.9324 12.7908
1 23.811 15.7134 13.5813
1 24.6047 14.9197 13.5813
1 24.6057 15.7285 12.7849
1 23.8253 14.9015 12.809
1 25.3984 15.7134 13.5813
1 26.1921 14.9197 13.5813
1 26.2017 15.7073 12.7913
1 25.3755 14.9301 12.7945
1 26.9858 15.7134 13.5813
1 27.7795 14.9197 13.5813
1 27.7535 15.7205 12.7773
1 26.9786 14.9106 12.7734
1 28.5732 15.7134 13.5813
1 29.3669 14.9197 13.5813
1 29.2895 15.7075 12.7733
1 28.526 14.901 12.8085
1 30 14.126 13.5813
1 0.793701 13.3323 13.5813
1 0.830694 14.1272 12.7746
1 0.0679314 13.3344 12.7648
1 1.5874 14.126 13.5813
1 2.3811 13.3323 13.5813
1 2.4122 14.111 12.7683
1 1.60726 13.3196 12.7683
1 3.1748 14.126 13.5813
1 3.9685 13.3323 13.5813
1 3.95497 14.1346 12.7924
1 3.15991 13.3096 12.7782
1 4.7622 14.126 13.5813
1 5.5559 13.3323 13.5813
1 5.57141 14.1212 12.7795
1 4.78856 13.3483 12.8113
1 6.3496 14.126 13.5813
1 7.1433 13.3323 13.5813
1 7.15206 14.1331 12.7949
1 6.37217 13.351 12.7794
1 7.93701 14.126 13.5813
1 8.73071 13.3323 13.5813
1 8.72744 14.1284 12.7808
1 7.9347 13.3342 12.805
1 9.52441 14.126 13.5813
1 10.3181 13.3323 13.5813
1 10.3437 14.1128 12.7754
1 9.524 13.3642 12.776
1 11.1118 14.126 13.5813
1 11.9055 13.3323 13.5813
1 11.9204 14.1132 12.767
1 11.1296 13.335 12.7982
1 12.6992 14.126 13.5813
1 13.4929 13.3323 13.5813
1 13.4962 14.1175 12.7739
1 12.6783 13.3366 12.7478
1 14.2866 14.126 13.5813
1 15.0803 13.3323 13.5813
1 15.0881 14.1124 12.7776
1 14.2894 13.3307 12.792
1 15.874 14.126 13.5813
1 16.6677 13.3323 13.5813
1 16.7079 14.1338 12.7883
1 15.8987 13.3428 12.7839
1 17.4614 14.126 13.5813
1 18.2551 13.3323 13.5813
1 18.2336 14.1284 12.7638
1 17.4837 13.3148 12.7967
1 19.0488 14.126 13.5813
1 19.8425 13.3323 13.5813
1 19.8665 14.1244 12.7764
1 19.0558 13.3464 12.8009
1 20.6362 14.126 13.5813
1 21.4299 13.3323 13.5813
1 21.4142 14.1215 12.7819
1 20.6252 13.352 12.7661
1 22.2236 14.126 13.5813
1 23.0173 13.3323 13.5813
1 23.0085 14.1347 12.7672
1 22.2053 13.3277 12.8034
1 23.811 14.126 13.5813
1 24.6047 13.3323 13.5813
1 24.586 14.1177 12.8024
1 23.8378 13.3271 12.7819
1 25.3984 14.126 13.5813
1 26.1921 13.3323 13.5813
1 26.1901 14.1533 12.7775
1 25.4068 13.3108 12.7882
1 26.9858 14.126 13.5813
1 27.7795 13.3323 13.5813
1 27.7735 14.1374 12.811
1 26.9792 13.3542 12.7738
1 28.5732 14.126 13.5813
1 29.3669 13.3323 13.5813
1 29.3282 14.1142 12.7742
1 28.5347 13.3392 12.7653
1 30 12.5386 13.5813
1 0.793701 11.7449 13.5813
1 0.805384 12.5424 12.7527
1 0.0715104 11.7694 12.7414
1 1.5874 12.5386 13.5813
1 2.3811 11.7449 13.5813
1 2.3743 12.5353 12.7641
1 1.60345 11.7468 12.7896
1 3.1748 12.5386 13.5813
1 3.9685 11.7449 13.5813
1 3.9475 12.5518 12.7689
1 3.15271 11.7739 12.7894
1 4.7622 12.5386 13.5813
1 5.5559 11.7449 13.5813
1 5.58256 12.5358 12.785
1 4.75047 11.7764 12.7877
1 6.3496 12.5386 13.5813
1 7.1433 11.7449 13.5813
1 7.13762 12.5143 12.7834
1 6.33815 11.7378 12.7733
1 7.93701 12.5386 13.5813
1 8.73071 11.7449 13.5813
1 8.73663 12.5381 12.802
1 7.95201 11.7331 12.7669
1 9.52441 12.5386 13.5813
1 10.3181 11.7449 13.5813
1 10.2929 12.5391 12.769
1 9.51484 11.7323 12.7982
1 11.1118 12.5386 13.5813
1 11.9055 11.7449 13.5813
1 11.9246 12.5157 12.7801
1 11.1191 11.7305 12.8017
1 12.6992 12.5386 13.5813
1 13.4929 11.7449 13.5813
1 13.5271 12.5363 12.7692
1 12.7187 11.7508 12.7651
1 14.2866 12.5386 13.5813
1 15.0803 11.7449 13.5813
1 15.0803 12.5318 12.7675
1 14.2968 11.7515 12.7726
1 15.874 12.5386 13.5813
1 16.6677 11.7449 13.5813
1 16.6635 12.5361 12.805
1 15.8861 11.7548 12.7915
1 17.4614 12.5386 13.5813
1 18.2551 11.7449 13.5813
1 18.2662 12.532 12.7681
1 17.4854 11.7484 12.8226
1 19.0488 12.5386 13.5813
1 19.8425 11.7449 13.5813
1 19.8434 12.5441 12.7928
1 19.0591 11.7124 12.7879
1 20.6362 12.5386 13.5813
1 21.4299 11.7449 13.5813
1 21.4219 12.5485 12.79
1 20.6123 11.7363 12.7857
1 22.2236 12.5386 13.5813
1 23.0173 11.7449 13.5813
1 23.05 12.529 12.7776
1 22.2262 11.7383 12.8047
1 23.811 12.5386 13.5813
1 24.6047 11.7449 13.5813
1 24.6152 12.5218 12.7554
1 23.8126 11.7398 12.7849
1 25.3984 12.5386 13.5813
1 26.1921 11.7449 13.5813
1 26.1984 12.5091 12.7936
1 25.3871 11.7413 12.7708
1 26.9858 12.5386 13.5813
1 27.7795 11.7449 13.5813
1 27.761 12.5575 12.8008
1 27.0056 11.7598 12.7935
1 28.5732 12.5386 13.5813
1 29.3669 11.7449 13.5813
1 29.2773 12.5447 12.7728
1 28.5418 11.758 12.7844
1 30 10.9512 13.5813
1 0.793701 10.1575 13.5813
1 0.81314 10.9659 12.7802
1 0.0813577 10.1773 12.768
1 1.5874 10.9512 13.5813
1 2.3811 10.1575 13.5813
1 2.38692 10.9542 12.807
1 1.60066 10.1689 12.7773
1 3.1748 10.9512 13.5813
1 3.9685 10.1575 13.5813
1 3.97636 10.9546 12.792
1 3.19656 10.15 12.7873
1 4.7622 10.9512 13.5813
1 5.5559 10.1575 13.5813
1 5.53261 10.9307 12.7814
1 4.72736 10.1412 12.7883
1 6.3496 10.9512 13.5813
1 7.1433 10.1575 13.5813
1 7.11126 10.9465 12.8056
1 6.34105 10.1626 12.7801
1 7.93701 10.9512 13.5813
1 8.73071 10.1575 13.5813
1 8.73305 10.9057 12.7853
1 7.91432 10.1407 12.7754
1 9.52441 10.9512 13.5813
1 10.3181 10.1575 13.5813
1 10.3157 10.9322 12.7785
1 9.52165 10.1559 12.8036
1 11.1118 10.9512 13.5813
1 11.9055 10.1575 13.5813
1 11.9265 10.9358 12.7905
1 11.0963 10.1643 12.8115
1 12.6992 10.9512 13.5813
1 13.4929 10.1575 13.5813
1 13.4914 10.9587 12.7834
1 12.6943 10.1544 12.7642
1 14.2866 10.9512 13.5813
1 15.0803 10.1575 13.5813
1 15.0755 10.9658 12.7976
1 14.2835 10.163 12.786
1 15.874 10.9512 13.5813
1 16.6677 10.1575 13.5813
1 16.6694 10.9508 12.7982
1 15.8773 10.1783 12.7808
1 17.4614 10.9512 13.5813
1 18.2551 10.1575 13.5813
1 18.238 10.9269 12.7784
1 17.4524 10.1407 12.7919
1 19.0488 10.9512 13.5813
1 19.8425 10.1575 13.5813
1 19.8172 10.936 12.7788
1 19.0528 10.1414 12.7651
1 20.6362 10.9512 13.5813
1 21.4299 10.1575 13.5813
1 21.433 10.9669 12.7887
1 20.6284 10.1477 12.7768
1 22.2236 10.9512 13.5813
1 23.0173 10.1575 13.5813
1 23.0239 10.9468 12.7886
1 22.2428 10.1505 12.7752
1 23.811 10.9512 13.5813
1 24.6047 10.1575 13.5813
1 24.5858 10.9516 12.7968
1 23.8047 10.1698 12.8005
1 25.3984 10.9512 13.5813
1 26.1921 10.1575 13.5813
1 26.2022 10.9584 12.8245
1 25.4017 10.1766 12.7962
1 26.9858 10.9512 13.5813
1 27.7795 10.1575 13.5813
1 27.7922 10.9747 12.8067
1 26.9885 10.1645 12.7897
1 28.5732 10.9512 13.5813
1 29.3669 10.1575 13.5813
1 29.3002 10.9525 12.7756
1 28.5434 10.174 12.7983
1 30 9.36379 13.5813
1 0.793701 8.57009 13.5813
1 0.826435 9.38344 12.7612
1 0.0619436 8.58377 12.7589
1 1.5874 9.36379 13.5813
1 2.3811 8.57009 13.5813
1 2.37961 9.36152 12.7831
1 1.60245 8.56439 12.7906
1 3.1748 9.36379 13.5813
1 3.9685 8.57009 13.5813
1 3.97606 9.34622 12.7872
1 3.18184 8.56727 12.7799
1 4.7622 9.36379 13.5813
1 5.5559 8.57009 13.5813
1 5.56496 9.37461 12.7876
1 4.77505 8.56164 12.7946
1 6.3496 9.36379 13.5813
1 7.1433 8.57009 13.5813
1 7.14384 9.34818 12.7798
1 6.34499 8.55535 12.798
1 7.93701 9.36379 13.5813
1 8.73071 8.57009 13.5813
1 8.71811 9.36692 12.7721
1 7.9352 8.55137 12.7842
1 9.52441 9.36379 13.5813
1 10.3181 8.57009 13.5813
1 10.3224 9.37519 12.7932
1 9.52886 8.56373 12.7772
1 11.1118 9.36379 13.5813
1 11.9055 8.57009 13.5813
1 11.8993 9.36419 12.7917
1 11.1322 8.56974 12.8064
1 12.6992 9.36379 13.5813
1 13.4929 8.57009 13.5813
1 13.5027 9.36695 12.8151
1 12.7017 8.56037 12.7919
1 14.2866 9.36379 13.5813
1 15.0803 8.57009 13.5813
1 15.0835 9.33215 12.8013
1 14.2818 8.56473 12.7843
1 15.874 9.36379 13.5813
1 16.6677 8.57009 13.5813
1 16.6761 9.36506 12.8026
1 15.8767 8.60956 12.795
1 17.4614 9.36379 13.5813
1 18.2551 8.57009 13.5813
1 18.257 9.35903 12.8036
1 17.4682 8.57702 12.8133
1 19.0488 9.36379 13.5813
1 19.8425 8.57009 13.5813
1 19.8309 9.32354 12.7694
1 19.056 8.60017 12.7884
1 20.6362 9.36379 13.5813
1 21.4299 8.57009 13.5813
1 21.4436 9.3509 12.7832
1 20.6458 8.55924 12.7899
1 22.2236 9.36379 13.5813
1 23.0173 8.57009 13.5813
1 23.0269 9.39283 12.8062
1 22.2181 8.56684 12.8136
1 23.811 9.36379 13.5813
1 24.6047 8.57009 13.5813
1 24.6179 9.38259 12.803
1 23.8273 8.5977 12.7938
1 25.3984 9.36379 13.5813
1 26.1921 8.57009 13.5813
1 26.1764 9.37152 12.7742
1 25.405 8.57541 12.8163
1 26.9858 9.36379 13.5813
1 27.7795 8.57009 13.5813
1 27.7744 9.36595 12.8264
1 26.9713 8.57609 12.7886
1 28.5732 9.36379 13.5813
1 29.3669 8.57009 13.5813
1 29.3069 9.36441 12.7605
1 28.5561 8.56542 12.8275
1 30 7.77639 13.5813
1 0.793701 6.98268 13.5813
1 0.82521 7.80551 12.7747
1 0.0789378 6.98801 12.7633
1 1.5874 7.77639 13.5813
1 2.3811 6.98268 13.5813
1 2.41139 7.76463 12.7801
1 1.57705 6.97554 12.7689
1 3.1748 7.77639 13.5813
1 3.9685 6.98268 13.5813
1 3.96933 7.77917 12.7757
1 3.20193 6.99593 12.7738
1 4.7622 7.77639 13.5813
1 5.5559 6.98268 13.5813
1 5.53181 7.7617 12.7776
1 4.77217 6.97403 12.7805
1 6.3496 7.77639 13.5813
1 7.1433 6.98268 13.5813
1 7.17 7.76511 12.7901
1 6.34596 7.01297 12.8054
1 7.93701 7.77639 13.5813
1 8.73071 6.98268 13.5813
1 8.74156 7.75735 12.7966
1 7.9479 7.00779 12.7828
1 9.52441 7.77639 13.5813
1 10.3181 6.98268 13.5813
1 10.3274 7.76771 12.7896
1 9.55013 6.98712 12.7587
1 11.1118 7.77639 13.5813
1 11.9055 6.98268 13.5813
1 11.9433 7.77626 12.7928
1 11.1289 6.98705 12.7963
1 12.6992 7.77639 13.5813
1 13.4929 6.98268 13.5813
1 13.4922 7.78106 12.7786
1 12.7012 6.9792 12.8001
1 14.2866 7.77639 13.5813
1 15.0803 6.98268 13.5813
1 15.0982 7.79506 12.8019
1 14.3065 6.99365 12.7987
1 15.874 7.77639 13.5813
1 16.6677 6.98268 13.5813
1 16.672 7.77638 12.8097
1 15.8783 6.98031 12.7904
1 17.4614 7.77639 13.5813
1 18.2551 6.98268 13.5813
1 18.2672 7.79746 12.7985
1 17.4498 6.99012 12.7821
1 19.0488 7.77639 13.5813
1 19.8425 6.98268 13.5813
1 19.8301 7.75841 12.7868
1 19.0278 6.95131 12.8094
1 20.6362 7.77639 13.5813
1 21.4299 6.98268 13.5813
1 21.4356 7.76527 12.7716
1 20.6285 6.97255 12.7853
1 22.2236 7.77639 13.5813
1 23.0173 6.98268 13.5813
1 23.0324 7.80288 12.7748
1 22.2395 7.00723 12.8011
1 23.811 7.77639 13.5813
1 24.6047 6.98268 13.5813
1 24.6287 7.80782 12.8036
1 23.7996 6.98727 12.8047
1 25.3984 7.77639 13.5813
1 26.1921 6.98268 13.5813
1 26.1865 7.76271 12.8066
1 25.3932 6.99478 12.8095
1 26.9858 7.77639 13.5813
1 27.7795 6.98268 13.5813
1 27.7748 7.7589 12.8306
1 27.0062 6.98555 12.7663
1 28.5732 7.77639 13.5813
1 29.3669 6.98268 13.5813
1 29.3085 7.77534 12.747
1 28.5757 6.96895 12.7932
1 30 6.18898 13.5813
1 0.793701 5.39528 13.5813
1 0.79426 6.2024 12.7643
1 0.080569 5.37062 12.739
1 1.5874 6.18898 13.5813
1 2.3811 5.39528 13.5813
1 2.39188 6.21072 12.782
1 1.57986 5.39655 12.7841
1 3.1748 6.18898 13.5813
1 3.9685 5.39528 13.5813
1 3.95065 6.18309 12.7673
1 3.17621 5.40732 12.7999
1 4.7622 6.18898 13.5813
1 5.5559 5.39528 13.5813
1 5.559 6.19558 12.8036
1 4.76159 5.41707 12.7605
1 6.3496 6.18898 13.5813
1 7.1433 5.39528 13.5813
1 7.12978 6.17439 12.794
1 6.32539 5.39198 12.7909
1 7.93701 6.18898 13.5813
1 8.73071 5.39528 13.5813
1 8.75962 6.20488 12.8161
1 7.94751 5.41249 12.8138
1 9.52441 6.18898 13.5813