9376
Atoms. Timestep: 7000
1 0 3.55271e-15 29.8676
1 0.793701 29.2063 29.8676
1 0.823126 29.9377 29.0393
1 0.0693541 29.2036 29.0165
1 1.5874 3.55271e-15 29.8676
1 2.3811 29.2063 29.8676
1 2.38946 29.9266 29.0414
1 1.60469 29.1732 29.0594
1 3.1748 3.55271e-15 29.8676
1 3.9685 29.2063 29.8676
1 3.94798 29.9311 29.05
1 3.19321 29.1243 29.0579
1 4.7622 3.55271e-15 29.8676
1 5.5559 29.2063 29.8676
1 5.59524 29.9487 29.0281
1 4.77884 29.194 29.0538
1 6.3496 3.55271e-15 29.8676
1 7.1433 29.2063 29.8676
1 7.15913 29.9194 29.0261
1 6.36925 29.1565 29.0716
1 7.93701 3.55271e-15 29.8676
1 8.73071 29.2063 29.8676
1 8.74096 29.9287 29.0684
1 7.97523 29.1538 29.0442
1 9.52441 3.55271e-15 29.8676
1 10.3181 29.2063 29.8676
1 10.273 29.912 29.044
1 9.52357 29.1768 29.059
1 11.1118 3.55271e-15 29.8676
1 11.9055 29.2063 29.8676
1 11.9015 29.9164 29.0299
1 11.1028 29.1861 29.0404
1 12.6992 3.55271e-15 29.8676
1 13.4929 29.2063 29.8676
1 13.5042 29.8992 29.028
1 12.6963 29.1841 29.0506
1 14.2866 3.55271e-15 29.8676
1 15.0803 29.2063 29.8676
1 15.0775 29.9351 29.0282
1 14.2747 29.1718 29.0643
1 15.874 3.55271e-15 29.8676
1 16.6677 29.2063 29.8676
1 16.6768 29.9322 29.0449
1 15.8753 29.1751 29.0709
1 17.4614 3.55271e-15 29.8676
1 18.2551 29.2063 29.8676
1 18.2505 29.9467 29.0646
1 17.4485 29.1618 29.0719
1 19.0488 3.55271e-15 29.8676
1 19.8425 29.2063 29.8676
1 19.8381 29.9497 29.0199
1 19.0477 29.1506 29.0441
1 20.6362 3.55271e-15 29.8676
1 21.4299 29.2063 29.8676
1 21.4017 29.9252 29.0471
1 20.63 29.1701 29.0821
1 22.2236 3.55271e-15 29.8676
1 23.0173 29.2063 29.8676
1 23.0326 29.8982 29.045
1 22.211 29.1653 29.0719
1 23.811 3.55271e-15 29.8676
1 24.6047 29.2063 29.8676
1 24.6059 29.9507 29.0551
1 23.7888 29.1769 29.0527
1 25.3984 3.55271e-15 29.8676
1 26.1921 29.2063 29.8676
1 26.1591 29.935 29.0515
1 25.3878 29.1787 29.0826
1 26.9858 3.55271e-15 29.8676
1 27.7795 29.2063 29.8676
1 27.7516 29.9415 29.0413
1 26.9494 29.1612 29.0684
1 28.5732 3.55271e-15 29.8676
1 29.3669 29.2063 29.8676
1 29.2876 29.9287 28.998
1 28.5339 29.1778 29.0539
1 0 28.4126 29.8676
1 0.793701 27.6189 29.8676
1 0.835961 28.3889 29.0742
1 0.076657 27.5984 29.0431
1 1.5874 28.4126 29.8676
1 2.3811 27.6189 29.8676
1 2.41232 28.405 29.0673
1 1.60942 27.6031 29.081
1 3.1748 28.4126 29.8676
1 3.9685 27.6189 29.8676
1 4.00076 28.3941 29.0539
1 3.19238 27.6143 29.0562
1 4.7622 28.4126 29.8676
1 5.5559 27.6189 29.8676
1 5.58502 28.3633 29.0735
1 4.76375 27.5818 29.0897
1 6.3496 28.4126 29.8676
1 7.1433 27.6189 29.8676
1 7.19289 28.4051 29.0693
1 6.35679 27.6073 29.0576
1 7.93701 28.4126 29.8676
1 8.73071 27.6189 29.8676
1 8.72147 28.382 29.0904
1 7.92825 27.5871 29.0685
1 9.52441 28.4126 29.8676
1 10.3181 27.6189 29.8676
1 10.318 28.4057 29.0673
1 9.53477 27.6223 29.0795
1 11.1118 28.4126 29.8676
1 11.9055 27.6189 29.8676
1 11.8982 28.4136 29.0449
1 11.1125 27.6296 29.0763
1 12.6992 28.4126 29.8676
1 13.4929 27.6189 29.8676
1 13.4708 28.4198 29.0678
1 12.6943 27.5954 29.074
1 14.2866 28.4126 29.8676
1 15.0803 27.6189 29.8676
1 15.1249 28.4137 29.0404
1 14.2467 27.5988 29.0681
1 15.874 28.4126 29.8676
1 16.6677 27.6189 29.8676
1 16.6691 28.3666 29.08
1 15.8441 27.595 29.0952
1 17.4614 28.4126 29.8676
1 18.2551 27.6189 29.8676
1 18.2567 28.4013 29.0789
1 17.4734 27.6203 29.0748
1 19.0488 28.4126 29.8676
1 19.8425 27.6189 29.8676
1 19.8046 28.3937 29.0827
1 19.0536 27.6039 29.0458
1 20.6362 28.4126 29.8676
1 21.4299 27.6189 29.8676
1 21.4447 28.3843 29.0634
1 20.6178 27.5808 29.1077
1 22.2236 28.4126 29.8676
1 23.0173 27.6189 29.8676
1 23.0341 28.402 29.0741
1 22.2214 27.622 29.0709
1 23.811 28.4126 29.8676
1 24.6047 27.6189 29.8676
1 24.6121 28.3943 29.0914
1 23.7997 27.6039 29.0799
1 25.3984 28.4126 29.8676
1 26.1921 27.6189 29.8676
1 26.1568 28.3923 29.0645
1 25.3938 27.6111 29.0676
1 26.9858 28.4126 29.8676
1 27.7795 27.6189 29.8676
1 27.7754 28.3945 29.0533
1 26.9733 27.6052 29.0766
1 28.5732 28.4126 29.8676
1 29.3669 27.6189 29.8676
1 29.313 28.3945 29.0408
1 28.5501 27.5732 29.0911
1 0 26.8252 29.8676
1 0.793701 26.0315 29.8676
1 0.814592 26.8083 29.0668
1 0.0579939 26.0082 29.0443
1 1.5874 26.8252 29.8676
1 2.3811 26.0315 29.8676
1 2.39779 26.8043 29.1047
1 1.60889 26.0295 29.0922
1 3.1748 26.8252 29.8676
1 3.9685 26.0315 29.8676
1 3.97994 26.8036 29.061
1 3.17275 26.0386 29.0546
1 4.7622 26.8252 29.8676
1 5.5559 26.0315 29.8676
1 5.56603 26.8223 29.0665
1 4.76684 26.0149 29.0678
1 6.3496 26.8252 29.8676
1 7.1433 26.0315 29.8676
1 7.11836 26.8016 29.0756
1 6.32321 26.0074 29.0784
1 7.93701 26.8252 29.8676
1 8.73071 26.0315 29.8676
1 8.72839 26.8235 29.074
1 7.94243 26.0507 29.0629
1 9.52441 26.8252 29.8676
1 10.3181 26.0315 29.8676
1 10.3153 26.8243 29.079
1 9.54445 26.0228 29.0685
1 11.1118 26.8252 29.8676
1 11.9055 26.0315 29.8676
1 11.9093 26.8158 29.0732
1 11.0848 26.0202 29.1008
1 12.6992 26.8252 29.8676
1 13.4929 26.0315 29.8676
1 13.5134 26.811 29.0908
1 12.7124 26.0193 29.071
1 14.2866 26.8252 29.8676
1 15.0803 26.0315 29.8676
1 15.0726 26.811 29.0568
1 14.2636 26.029 29.0576
1 15.874 26.8252 29.8676
1 16.6677 26.0315 29.8676
1 16.6728 26.8219 29.083
1 15.851 26.0517 29.0728
1 17.4614 26.8252 29.8676
1 18.2551 26.0315 29.8676
1 18.2645 26.8265 29.0985
1 17.4257 26.0121 29.0739
1 19.0488 26.8252 29.8676
1 19.8425 26.0315 29.8676
1 19.8231 26.8158 29.1073
1 19.0531 26.0029 29.0664
1 20.6362 26.8252 29.8676
1 21.4299 26.0315 29.8676
1 21.4363 26.8246 29.0624
1 20.6409 26.0063 29.0944
1 22.2236 26.8252 29.8676
1 23.0173 26.0315 29.8676
1 23.0036 26.8431 29.0961
1 22.2063 26.0335 29.0859
1 23.811 26.8252 29.8676
1 24.6047 26.0315 29.8676
1 24.6181 26.7956 29.0722
1 23.8067 26.0464 29.0774
1 25.3984 26.8252 29.8676
1 26.1921 26.0315 29.8676
1 26.1689 26.8083 29.0539
1 25.3784 26.0265 29.0909
1 26.9858 26.8252 29.8676
1 27.7795 26.0315 29.8676
1 27.751 26.8027 29.087
1 26.9771 26.0242 29.054
1 28.5732 26.8252 29.8676
1 29.3669 26.0315 29.8676
1 29.3065 26.8271 29.0355
1 28.5437 26.0153 29.0698
1 0 25.2378 29.8676
1 0.793701 24.4441 29.8676
1 0.837162 25.2144 29.0793
1 0.0629124 24.4151 29.0427
1 1.5874 25.2378 29.8676
1 2.3811 24.4441 29.8676
1 2.41296 25.2267 29.0618
1 1.61252 24.4484 29.0872
1 3.1748 25.2378 29.8676
1 3.9685 24.4441 29.8676
1 3.94465 25.2367 29.0383
1 3.19166 24.4479 29.0687
1 4.7622 25.2378 29.8676
1 5.5559 24.4441 29.8676
1 5.55404 25.2146 29.0728
1 4.74148 24.4477 29.0767
1 6.3496 25.2378 29.8676
1 7.1433 24.4441 29.8676
1 7.14581 25.2319 29.0796
1 6.35334 24.4378 29.0714
1 7.93701 25.2378 29.8676
1 8.73071 24.4441 29.8676
1 8.73528 25.2311 29.0893
1 7.90211 24.4432 29.0818
1 9.52441 25.2378 29.8676
1 10.3181 24.4441 29.8676
1 10.3188 25.2455 29.0581
1 9.55343 24.46 29.0774
1 11.1118 25.2378 29.8676
1 11.9055 24.4441 29.8676
1 11.9171 25.2232 29.0847
1 11.1265 24.4365 29.0858
1 12.6992 25.2378 29.8676
1 13.4929 24.4441 29.8676
1 13.4995 25.2002 29.0616
1 12.7089 24.446 29.0812
1 14.2866 25.2378 29.8676
1 15.0803 24.4441 29.8676
1 15.0972 25.2175 29.0531
1 14.2817 24.4554 29.0634
1 15.874 25.2378 29.8676
1 16.6677 24.4441 29.8676
1 16.6384 25.2404 29.0615
1 15.889 24.4269 29.0852
1 17.4614 25.2378 29.8676
1 18.2551 24.4441 29.8676
1 18.2619 25.2177 29.0677
1 17.4599 24.4394 29.0743
1 19.0488 25.2378 29.8676
1 19.8425 24.4441 29.8676
1 19.819 25.2411 29.1046
1 19.0643 24.4691 29.0907
1 20.6362 25.2378 29.8676
1 21.4299 24.4441 29.8676
1 21.4183 25.2309 29.0626
1 20.6495 24.4405 29.0961
1 22.2236 25.2378 29.8676
1 23.0173 24.4441 29.8676
1 23.0355 25.2269 29.0709
1 22.2 24.4355 29.0755
1 23.811 25.2378 29.8676
1 24.6047 24.4441 29.8676
1 24.6002 25.2303 29.0629
1 23.8001 24.457 29.0654
1 25.3984 25.2378 29.8676
1 26.1921 24.4441 29.8676
1 26.1872 25.2141 29.0541
1 25.4031 24.4338 29.0886
1 26.9858 25.2378 29.8676
1 27.7795 24.4441 29.8676
1 27.7474 25.2237 29.0604
1 26.9586 24.4263 29.0778
1 28.5732 25.2378 29.8676
1 29.3669 24.4441 29.8676
1 29.2983 25.2275 29.053
1 28.5471 24.429 29.0754
1 0 23.6504 29.8676
1 0.793701 22.8567 29.8676
1 0.839613 23.6414 29.0637
1 0.0706069 22.8505 29.05
1 1.5874 23.6504 29.8676
1 2.3811 22.8567 29.8676
1 2.41453 23.6426 29.0733
1 1.6198 22.848 29.1032
1 3.1748 23.6504 29.8676
1 3.9685 22.8567 29.8676
1 3.9549 23.6244 29.084
1 3.18007 22.8481 29.0782
1 4.7622 23.6504 29.8676
1 5.5559 22.8567 29.8676
1 5.55597 23.6557 29.0579
1 4.7669 22.858 29.0546
1 6.3496 23.6504 29.8676
1 7.1433 22.8567 29.8676
1 7.14211 23.6359 29.0779
1 6.33711 22.8612 29.0904
1 7.93701 23.6504 29.8676
1 8.73071 22.8567 29.8676
1 8.72127 23.6498 29.0756
1 7.92201 22.8535 29.091
1 9.52441 23.6504 29.8676
1 10.3181 22.8567 29.8676
1 10.3292 23.6443 29.0605
1 9.5042 22.8389 29.0722
1 11.1118 23.6504 29.8676
1 11.9055 22.8567 29.8676
1 11.9022 23.6585 29.0747
1 11.0968 22.8223 29.079
1 12.6992 23.6504 29.8676
1 13.4929 22.8567 29.8676
1 13.5 23.6447 29.0712
1 12.699 22.8541 29.0685
1 14.2866 23.6504 29.8676
1 15.0803 22.8567 29.8676
1 15.0925 23.666 29.0627
1 14.2753 22.8682 29.1
1 15.874 23.6504 29.8676
1 16.6677 22.8567 29.8676
1 16.6883 23.6392 29.0706
1 15.865 22.8676 29.0674
1 17.4614 23.6504 29.8676
1 18.2551 22.8567 29.8676
1 18.2403 23.6573 29.0885
1 17.4662 22.8294 29.0596
1 19.0488 23.6504 29.8676
1 19.8425 22.8567 29.8676
1 19.8539 23.6616 29.0768
1 19.0392 22.8328 29.0602
1 20.6362 23.6504 29.8676
1 21.4299 22.8567 29.8676
1 21.4362 23.6545 29.0698
1 20.6524 22.8413 29.0768
1 22.2236 23.6504 29.8676
1 23.0173 22.8567 29.8676
1 23.0097 23.647 29.0936
1 22.2297 22.8525 29.0815
1 23.811 23.6504 29.8676
1 24.6047 22.8567 29.8676
1 24.5883 23.6286 29.0651
1 23.8262 22.8398 29.0484
1 25.3984 23.6504 29.8676
1 26.1921 22.8567 29.8676
1 26.1676 23.6458 29.0783
1 25.4188 22.836 29.0775
1 26.9858 23.6504 29.8676
1 27.7795 22.8567 29.8676
1 27.7458 23.6566 29.0802
1 26.9744 22.8619 29.0803
1 28.5732 23.6504 29.8676
1 29.3669 22.8567 29.8676
1 29.2945 23.6536 29.0419
1 28.5378 22.8449 29.0766
1 0 22.063 29.8676
1 0.793701 21.2693 29.8676
1 0.8014 22.0274 29.084
1 0.0765695 21.2407 29.0372
1 1.5874 22.063 29.8676
1 2.3811 21.2693 29.8676
1 2.40445 22.0321 29.0604
1 1.58539 21.2428 29.0533
1 3.1748 22.063 29.8676
1 3.9685 21.2693 29.8676
1 3.96753 22.0431 29.0897
1 3.1716 21.2645 29.053
1 4.7622 22.063 29.8676
1 5.5559 21.2693 29.8676
1 5.55829 22.0661 29.0877
1 4.76572 21.2554 29.091
1 6.3496 22.063 29.8676
1 7.1433 21.2693 29.8676
1 7.14833 22.0437 29.0469
1 6.31025 21.2834 29.0668
1 7.93701 22.063 29.8676
1 8.73071 21.2693 29.8676
1 8.7031 22.0754 29.0951
1 7.94706 21.2666 29.0749
1 9.52441 22.063 29.8676
1 10.3181 21.2693 29.8676
1 10.3199 22.0614 29.0492
1 9.53694 21.2535 29.0684
1 11.1118 22.063 29.8676
1 11.9055 21.2693 29.8676
1 11.8791 22.0609 29.0913
1 11.0853 21.2956 29.0607
1 12.6992 22.063 29.8676
1 13.4929 21.2693 29.8676
1 13.4975 22.0821 29.0575
1 12.6819 21.2654 29.0498
1 14.2866 22.063 29.8676
1 15.0803 21.2693 29.8676
1 15.0731 22.0567 29.0888
1 14.2861 21.2823 29.0821
1 15.874 22.063 29.8676
1 16.6677 21.2693 29.8676
1 16.6723 22.0443 29.1001
1 15.8442 21.2558 29.08
1 17.4614 22.063 29.8676
1 18.2551 21.2693 29.8676
1 18.2594 22.0718 29.0802
1 17.4596 21.2818 29.0741
1 19.0488 22.063 29.8676
1 19.8425 21.2693 29.8676
1 19.8525 22.0676 29.0766
1 19.0456 21.266 29.0834
1 20.6362 22.063 29.8676
1 21.4299 21.2693 29.8676
1 21.4413 22.0519 29.0792
1 20.6577 21.2697 29.0754
1 22.2236 22.063 29.8676
1 23.0173 21.2693 29.8676
1 23.0629 22.0591 29.0493
1 22.239 21.2724 29.0486
1 23.811 22.063 29.8676
1 24.6047 21.2693 29.8676
1 24.6175 22.057 29.0835
1 23.821 21.2834 29.0784
1 25.3984 22.063 29.8676
1 26.1921 21.2693 29.8676
1 26.1849 22.0698 29.0616
1 25.4149 21.2683 29.0787
1 26.9858 22.063 29.8676
1 27.7795 21.2693 29.8676
1 27.7669 22.0756 29.0694
1 26.9718 21.2684 29.0719
1 28.5732 22.063 29.8676
1 29.3669 21.2693 29.8676
1 29.3189 22.0589 29.0705
1 28.5404 21.2717 29.0601
1 0 20.4756 29.8676
1 0.793701 19.6819 29.8676
1 0.821442 20.4704 29.07
1 0.0712998 19.6836 29.0302
1 1.5874 20.4756 29.8676
1 2.3811 19.6819 29.8676
1 2.39884 20.4879 29.0558
1 1.60673 19.6942 29.0704
1 3.1748 20.4756 29.8676
1 3.9685 19.6819 29.8676
1 3.93065 20.4786 29.0775
1 3.17949 19.6804 29.0768
1 4.7622 20.4756 29.8676
1 5.5559 19.6819 29.8676
1 5.56119 20.481 29.083
1 4.79146 19.6942 29.0692
1 6.3496 20.4756 29.8676
1 7.1433 19.6819 29.8676
1 7.12321 20.4969 29.0897
1 6.33084 19.7031 29.0731
1 7.93701 20.4756 29.8676
1 8.73071 19.6819 29.8676
1 8.70243 20.4642 29.0883
1 7.90582 19.7069 29.0589
1 9.52441 20.4756 29.8676
1 10.3181 19.6819 29.8676
1 10.3189 20.4733 29.0574
1 9.52565 19.6845 29.0957
1 11.1118 20.4756 29.8676
1 11.9055 19.6819 29.8676
1 11.9128 20.4832 29.0536
1 11.0974 19.6981 29.0627
1 12.6992 20.4756 29.8676
1 13.4929 19.6819 29.8676
1 13.4804 20.4592 29.0774
1 12.675 19.679 29.0822
1 14.2866 20.4756 29.8676
1 15.0803 19.6819 29.8676
1 15.0817 20.4811 29.088
1 14.2913 19.68 29.0928
1 15.874 20.4756 29.8676
1 16.6677 19.6819 29.8676
1 16.666 20.4915 29.0691
1 15.8755 19.693 29.0751
1 17.4614 20.4756 29.8676
1 18.2551 19.6819 29.8676
1 18.2788 20.4894 29.0695
1 17.4636 19.7151 29.0661
1 19.0488 20.4756 29.8676
1 19.8425 19.6819 29.8676
1 19.8366 20.4795 29.0924
1 19.0581 19.7015 29.0735
1 20.6362 20.4756 29.8676
1 21.4299 19.6819 29.8676
1 21.429 20.452 29.0917
1 20.6609 19.691 29.0833
1 22.2236 20.4756 29.8676
1 23.0173 19.6819 29.8676
1 23.0182 20.5008 29.1092
1 22.2315 19.6734 29.0712
1 23.811 20.4756 29.8676
1 24.6047 19.6819 29.8676
1 24.6009 20.4916 29.0434
1 23.8178 19.6929 29.0889
1 25.3984 20.4756 29.8676
1 26.1921 19.6819 29.8676
1 26.171 20.4655 29.0515
1 25.4215 19.6913 29.0625
1 26.9858 20.4756 29.8676
1 27.7795 19.6819 29.8676
1 27.7302 20.4719 29.0693
1 26.9501 19.6972 29.086
1 28.5732 20.4756 29.8676
1 29.3669 19.6819 29.8676
1 29.3087 20.4465 29.0373
1 28.532 19.6892 29.0829
1 0 18.8882 29.8676
1 0.793701 18.0945 29.8676
1 0.814134 18.8892 29.0711
1 0.0591419 18.115 29.0344
1 1.5874 18.8882 29.8676
1 2.3811 18.0945 29.8676
1 2.3764 18.9201 29.0836
1 1.58158 18.0807 29.0741
1 3.1748 18.8882 29.8676
1 3.9685 18.0945 29.8676
1 3.96879 18.8992 29.0721
1 3.18411 18.091 29.069
1 4.7622 18.8882 29.8676
1 5.5559 18.0945 29.8676
1 5.56059 18.861 29.0441
1 4.76573 18.0976 29.0816
1 6.3496 18.8882 29.8676
1 7.1433 18.0945 29.8676
1 7.15357 18.8947 29.0848
1 6.33369 18.0909 29.0513
1 7.93701 18.8882 29.8676
1 8.73071 18.0945 29.8676
1 8.72674 18.8972 29.0795
1 7.94557 18.0891 29.0849
1 9.52441 18.8882 29.8676
1 10.3181 18.0945 29.8676
1 10.327 18.885 29.0827
1 9.54955 18.1136 29.0999
1 11.1118 18.8882 29.8676
1 11.9055 18.0945 29.8676
1 11.9046 18.8978 29.0736
1 11.0854 18.076 29.1111
1 12.6992 18.8882 29.8676
1 13.4929 18.0945 29.8676
1 13.4804 18.9016 29.0904
1 12.6828 18.0997 29.0816
1 14.2866 18.8882 29.8676
1 15.0803 18.0945 29.8676
1 15.0921 18.9006 29.0855
1 14.2801 18.1241 29.0832
1 15.874 18.8882 29.8676
1 16.6677 18.0945 29.8676
1 16.6674 18.9101 29.0726
1 15.8985 18.1307 29.0886
1 17.4614 18.8882 29.8676
1 18.2551 18.0945 29.8676
1 18.2708 18.8869 29.0522
1 17.4637 18.0985 29.0553
1 19.0488 18.8882 29.8676
1 19.8425 18.0945 29.8676
1 19.8237 18.9054 29.1069
1 19.0443 18.1085 29.0397
1 20.6362 18.8882 29.8676
1 21.4299 18.0945 29.8676
1 21.4235 18.8695 29.0639
1 20.6188 18.089 29.0736
1 22.2236 18.8882 29.8676
1 23.0173 18.0945 29.8676
1 23.0448 18.8882 29.0753
1 22.2224 18.0802 29.0574
1 23.811 18.8882 29.8676
1 24.6047 18.0945 29.8676
1 24.626 18.8795 29.0384
1 23.813 18.0856 29.0892
1 25.3984 18.8882 29.8676
1 26.1921 18.0945 29.8676
1 26.1886 18.8976 29.0622
1 25.4107 18.106 29.0716
1 26.9858 18.8882 29.8676
1 27.7795 18.0945 29.8676
1 27.7235 18.864 29.0851
1 26.9692 18.0612 29.0883
1 28.5732 18.8882 29.8676
1 29.3669 18.0945 29.8676
1 29.3092 18.8934 29.0554
1 28.542 18.0656 29.0557
1 0 17.3008 29.8676
1 0.793701 16.5071 29.8676
1 0.7874 17.3156 29.0716
1 0.075529 16.4927 29.0465
1 1.5874 17.3008 29.8676
1 2.3811 16.5071 29.8676
1 2.38434 17.3098 29.0908
1 1.59625 16.5084 29.0555
1 3.1748 17.3008 29.8676
1 3.9685 16.5071 29.8676
1 3.98014 17.3226 29.08
1 3.1885 16.5323 29.0671
1 4.7622 17.3008 29.8676
1 5.5559 16.5071 29.8676
1 5.57505 17.2988 29.0526
1 4.74265 16.494 29.0938
1 6.3496 17.3008 29.8676
1 7.1433 16.5071 29.8676
1 7.15675 17.3101 29.0744
1 6.33255 16.5304 29.0834
1 7.93701 17.3008 29.8676
1 8.73071 16.5071 29.8676
1 8.71444 17.3052 29.0725
1 7.92687 16.5299 29.0908
1 9.52441 17.3008 29.8676
1 10.3181 16.5071 29.8676
1 10.3119 17.2931 29.0663
1 9.54379 16.4992 29.0683
1 11.1118 17.3008 29.8676
1 11.9055 16.5071 29.8676
1 11.9004 17.3101 29.034
1 11.1193 16.4943 29.0996
1 12.6992 17.3008 29.8676
1 13.4929 16.5071 29.8676
1 13.4838 17.2988 29.0809
1 12.7059 16.5279 29.0806
1 14.2866 17.3008 29.8676
1 15.0803 16.5071 29.8676
1 15.0998 17.2941 29.0824
1 14.2929 16.5281 29.0702
1 15.874 17.3008 29.8676
1 16.6677 16.5071 29.8676
1 16.6608 17.2904 29.0803
1 15.8898 16.5007 29.0646
1 17.4614 17.3008 29.8676
1 18.2551 16.5071 29.8676
1 18.2555 17.2968 29.078
1 17.4545 16.515 29.0683
1 19.0488 17.3008 29.8676
1 19.8425 16.5071 29.8676
1 19.8167 17.3186 29.1151
1 19.0325 16.4899 29.0505
1 20.6362 17.3008 29.8676
1 21.4299 16.5071 29.8676
1 21.4187 17.2962 29.0822
1 20.6285 16.5063 29.0774
1 22.2236 17.3008 29.8676
1 23.0173 16.5071 29.8676
1 23.0293 17.3002 29.1171
1 22.219 16.5151 29.0667
1 23.811 17.3008 29.8676
1 24.6047 16.5071 29.8676
1 24.5988 17.2957 29.0836
1 23.803 16.5055 29.0732
1 25.3984 17.3008 29.8676
1 26.1921 16.5071 29.8676
1 26.1821 17.2847 29.0778
1 25.4379 16.4913 29.0907
1 26.9858 17.3008 29.8676
1 27.7795 16.5071 29.8676
1 27.791 17.291 29.0821
1 26.9916 16.4997 29.0889
1 28.5732 17.3008 29.8676
1 29.3669 16.5071 29.8676
1 29.3009 17.3031 29.0416
1 28.5438 16.4944 29.0732
1 0 15.7134 29.8676
1 0.793701 14.9197 29.8676
1 0.820878 15.721 29.0318
1 0.0513073 14.9431 29.0314
1 1.5874 15.7134 29.8676
1 2.3811 14.9197 29.8676
1 2.41646 15.7334 29.0571
1 1.58934 14.9251 29.0631
1 3.1748 15.7134 29.8676
1 3.9685 14.9197 29.8676
1 3.96475 15.6985 29.0875
1 3.164 14.9284 29.0485
1 4.7622 15.7134 29.8676
1 5.5559 14.9197 29.8676
1 5.54592 15.7197 29.064
1 4.7522 14.8898 29.0555
1 6.3496 15.7134 29.8676
1 7.1433 14.9197 29.8676
1 7.15685 15.7265 29.0858
1 6.36392 14.9133 29.0587
1 7.93701 15.7134 29.8676
1 8.73071 14.9197 29.8676
1 8.71007 15.7273 29.0909
1 7.93045 14.953 29.0684
1 9.52441 15.7134 29.8676
1 10.3181 14.9197 29.8676
1 10.3221 15.7163 29.0598
1 9.53387 14.9093 29.0478
1 11.1118 15.7134 29.8676
1 11.9055 14.9197 29.8676
1 11.9158 15.6779 29.0896
1 11.0995 14.9181 29.0621
1 12.6992 15.7134 29.8676
1 13.4929 14.9197 29.8676
1 13.4994 15.7434 29.087
1 12.7135 14.9511 29.092
1 14.2866 15.7134 29.8676
1 15.0803 14.9197 29.8676
1 15.0526 15.7275 29.0782
1 14.2835 14.9288 29.0529
1 15.874 15.7134 29.8676
1 16.6677 14.9197 29.8676
1 16.6583 15.7419 29.0971
1 15.8877 14.9331 29.0827
1 17.4614 15.7134 29.8676
1 18.2551 14.9197 29.8676
1 18.24 15.7165 29.0528
1 17.4424 14.9629 29.0794
1 19.0488 15.7134 29.8676
1 19.8425 14.9197 29.8676
1 19.8352 15.7052 29.0963
1 19.0436 14.9343 29.0745
1 20.6362 15.7134 29.8676
1 21.4299 14.9197 29.8676
1 21.4269 15.7264 29.0699
1 20.6606 14.9029 29.0881
1 22.2236 15.7134 29.8676
1 23.0173 14.9197 29.8676
1 23.0431 15.7161 29.0659
1 22.2249 14.9299 29.0658
1 23.811 15.7134 29.8676
1 24.6047 14.9197 29.8676
1 24.6137 15.7033 29.0909
1 23.813 14.9247 29.1032
1 25.3984 15.7134 29.8676
1 26.1921 14.9197 29.8676
1 26.1902 15.6858 29.0648
1 25.4076 14.9122 29.12
1 26.9858 15.7134 29.8676
1 27.7795 14.9197 29.8676
1 27.7581 15.7077 29.071
1 26.9723 14.8976 29.0642
1 28.5732 15.7134 29.8676
1 29.3669 14.9197 29.8676
1 29.2848 15.7097 29.0458
1 28.5423 14.9192 29.0804
1 0 14.126 29.8676
1 0.793701 13.3323 29.8676
1 0.838705 14.1026 29.0587
1 0.0549609 13.3286 29.0573
1 1.5874 14.126 29.8676
1 2.3811 13.3323 29.8676
1 2.37496 14.1314 29.0604
1 1.60952 13.3157 29.0574
1 3.1748 14.126 29.8676
1 3.9685 13.3323 29.8676
1 3.96787 14.1418 29.0395
1 3.17651 13.3374 29.0608
1 4.7622 14.126 29.8676
1 5.5559 13.3323 29.8676
1 5.5714 14.1297 29.0746
1 4.75493 13.3324 29.0732
1 6.3496 14.126 29.8676
1 7.1433 13.3323 29.8676
1 7.14927 14.1279 29.0555
1 6.34312 13.3267 29.0711
1 7.93701 14.126 29.8676
1 8.73071 13.3323 29.8676
1 8.72207 14.1345 29.0657
1 7.94301 13.3265 29.0796
1 9.52441 14.126 29.8676
1 10.3181 13.3323 29.8676
1 10.319 14.1312 29.0792
1 9.52054 13.3623 29.0631
1 11.1118 14.126 29.8676
1 11.9055 13.3323 29.8676
1 11.925 14.1639 29.0693
1 11.1098 13.3383 29.0826
1 12.6992 14.126 29.8676
1 13.4929 13.3323 29.8676
1 13.4928 14.1413 29.0678
1 12.7018 13.341 29.0551
1 14.2866 14.126 29.8676
1 15.0803 13.3323 29.8676
1 15.0861 14.1471 29.0787
1 14.2914 13.3422 29.0919
1 15.874 14.126 29.8676
1 16.6677 13.3323 29.8676
1 16.6716 14.1371 29.0928
1 15.8758 13.3282 29.076
1 17.4614 14.126 29.8676
1 18.2551 13.3323 29.8676
1 18.2686 14.1232 29.0849
1 17.4648 13.3524 29.105
1 19.0488 14.126 29.8676
1 19.8425 13.3323 29.8676
1 19.8385 14.1452 29.0778
1 19.0658 13.3493 29.0688
1 20.6362 14.126 29.8676
1 21.4299 13.3323 29.8676
1 21.4406 14.1267 29.0842
1 20.6578 13.3518 29.1041
1 22.2236 14.126 29.8676
1 23.0173 13.3323 29.8676
1 23.0248 14.122 29.0726
1 22.1995 13.3413 29.0698
1 23.811 14.126 29.8676
1 24.6047 13.3323 29.8676
1 24.6087 14.1355 29.1111
1 23.8457 13.3432 29.0856
1 25.3984 14.126 29.8676
1 26.1921 13.3323 29.8676
1 26.2001 14.1155 29.0632
1 25.4046 13.3482 29.0785
1 26.9858 14.126 29.8676
1 27.7795 13.3323 29.8676
1 27.7758 14.0858 29.06
1 26.9571 13.3274 29.0742
1 28.5732 14.126 29.8676
1 29.3669 13.3323 29.8676
1 29.2891 14.1369 29.0466
1 28.5483 13.3383 29.0646
1 0 12.5386 29.8676
1 0.793701 11.7449 29.8676
1 0.83004 12.5195 29.0855
1 0.0421262 11.7377 29.0374
1 1.5874 12.5386 29.8676
1 2.3811 11.7449 29.8676
1 2.40647 12.5383 29.0614
1 1.59196 11.7296 29.0642
1 3.1748 12.5386 29.8676
1 3.9685 11.7449 29.8676
1 3.95377 12.5415 29.0705
1 3.17718 11.7534 29.0701
1 4.7622 12.5386 29.8676
1 5.5559 11.7449 29.8676
1 5.56712 12.5577 29.0775
1 4.75194 11.767 29.0685
1 6.3496 12.5386 29.8676
1 7.1433 11.7449 29.8676
1 7.12739 12.5445 29.0996
1 6.36065 11.7575 29.07
1 7.93701 12.5386 29.8676
1 8.73071 11.7449 29.8676
1 8.72858 12.5109 29.0879
1 7.9481 11.7295 29.0768
1 9.52441 12.5386 29.8676
1 10.3181 11.7449 29.8676
1 10.2875 12.5581 29.0733
1 9.53965 11.7239 29.0692
1 11.1118 12.5386 29.8676
1 11.9055 11.7449 29.8676
1 11.9028 12.545 29.0543
1 11.1023 11.74 29.0744
1 12.6992 12.5386 29.8676
1 13.4929 11.7449 29.8676
1 13.4748 12.5369 29.0987
1 12.6943 11.741 29.0894
1 14.2866 12.5386 29.8676
1 15.0803 11.7449 29.8676
1 15.1006 12.5052 29.0441
1 14.2713 11.7238 29.0823
1 15.874 12.5386 29.8676
1 16.6677 11.7449 29.8676
1 16.6994 12.5559 29.0717
1 15.8936 11.7452 29.0722
1 17.4614 12.5386 29.8676
1 18.2551 11.7449 29.8676
1 18.2777 12.5323 29.1228
1 17.4573 11.7505 29.074
1 19.0488 12.5386 29.8676
1 19.8425 11.7449 29.8676
1 19.83 12.5783 29.0893
1 19.0786 11.7299 29.0653
1 20.6362 12.5386 29.8676
1 21.4299 11.7449 29.8676
1 21.4447 12.5488 29.0921
1 20.6391 11.7385 29.0867
1 22.2236 12.5386 29.8676
1 23.0173 11.7449 29.8676
1 23.0444 12.5627 29.0902
1 22.2062 11.7182 29.0883
1 23.811 12.5386 29.8676
1 24.6047 11.7449 29.8676
1 24.6093 12.5314 29.0851
1 23.7981 11.7255 29.1076
1 25.3984 12.5386 29.8676
1 26.1921 11.7449 29.8676
1 26.1842 12.5391 29.0485
1 25.404 11.7384 29.0866
1 26.9858 12.5386 29.8676
1 27.7795 11.7449 29.8676
1 27.7897 12.5533 29.0784
1 26.9644 11.7565 29.0795
1 28.5732 12.5386 29.8676
1 29.3669 11.7449 29.8676
1 29.2732 12.5557 29.05
1 28.5519 11.7422 29.072
1 0 10.9512 29.8676
1 0.793701 10.1575 29.8676
1 0.817753 10.9526 29.0512
1 0.0376858 10.1693 29.0536
1 1.5874 10.9512 29.8676
1 2.3811 10.1575 29.8676
1 2.3977 10.9519 29.0601
1 1.60639 10.1541 29.0905
1 3.1748 10.9512 29.8676
1 3.9685 10.1575 29.8676
1 3.96631 10.9566 29.066
1 3.19145 10.1678 29.0809
1 4.7622 10.9512 29.8676
1 5.5559 10.1575 29.8676
1 5.56109 10.9684 29.0634
1 4.75174 10.1645 29.087
1 6.3496 10.9512 29.8676
1 7.1433 10.1575 29.8676
1 7.13572 10.95 29.0816
1 6.31603 10.146 29.0556
1 7.93701 10.9512 29.8676
1 8.73071 10.1575 29.8676
1 8.71761 10.9502 29.0924
1 7.93852 10.1696 29.0768
1 9.52441 10.9512 29.8676
1 10.3181 10.1575 29.8676
1 10.3436 10.9445 29.0567
1 9.53947 10.1522 29.0964
1 11.1118 10.9512 29.8676
1 11.9055 10.1575 29.8676
1 11.9211 10.9332 29.0762
1 11.1213 10.1401 29.0928
1 12.6992 10.9512 29.8676
1 13.4929 10.1575 29.8676
1 13.5141 10.9399 29.0876
1 12.6757 10.1652 29.0718
1 14.2866 10.9512 29.8676
1 15.0803 10.1575 29.8676
1 15.0967 10.942 29.0933
1 14.291 10.1252 29.0793
1 15.874 10.9512 29.8676
1 16.6677 10.1575 29.8676
1 16.6653 10.9506 29.0639
1 15.8824 10.1713 29.1038
1 17.4614 10.9512 29.8676
1 18.2551 10.1575 29.8676
1 18.2726 10.9469 29.1011
1 17.4803 10.1658 29.0801
1 19.0488 10.9512 29.8676
1 19.8425 10.1575 29.8676
1 19.8409 10.9317 29.0771
1 19.0419 10.1506 29.0398
1 20.6362 10.9512 29.8676
1 21.4299 10.1575 29.8676
1 21.4173 10.942 29.0675
1 20.6435 10.1672 29.0932
1 22.2236 10.9512 29.8676
1 23.0173 10.1575 29.8676
1 23.0261 10.9348 29.0803
1 22.2062 10.1568 29.0863
1 23.811 10.9512 29.8676
1 24.6047 10.1575 29.8676
1 24.6138 10.9446 29.0817
1 23.7983 10.1688 29.0668
1 25.3984 10.9512 29.8676
1 26.1921 10.1575 29.8676
1 26.1941 10.9361 29.0634
1 25.4291 10.1519 29.0761
1 26.9858 10.9512 29.8676
1 27.7795 10.1575 29.8676
1 27.77 10.9626 29.0632
1 26.9579 10.1122 29.0883
1 28.5732 10.9512 29.8676
1 29.3669 10.1575 29.8676
1 29.2858 10.957 29.0378
1 28.5485 10.1809 29.0604
1 0 9.36379 29.8676
1 0.793701 8.57009 29.8676
1 0.823149 9.3777 29.0709
1 0.0613862 8.56116 29.0497
1 1.5874 9.36379 29.8676
1 2.3811 8.57009 29.8676
1 2.40282 9.35663 29.0847
1 1.60095 8.55977 29.078
1 3.1748 9.36379 29.8676
1 3.9685 8.57009 29.8676
1 3.97555 9.36832 29.0732
1 3.18181 8.56379 29.0794
1 4.7622 9.36379 29.8676
1 5.5559 8.57009 29.8676
1 5.5419 9.36924 29.0812
1 4.75563 8.59212 29.0509
1 6.3496 9.36379 29.8676
1 7.1433 8.57009 29.8676
1 7.13895 9.37669 29.0871
1 6.34302 8.57041 29.0671
1 7.93701 9.36379 29.8676
1 8.73071 8.57009 29.8676
1 8.72537 9.3898 29.0549
1 7.94728 8.58012 29.0573
1 9.52441 9.36379 29.8676
1 10.3181 8.57009 29.8676
1 10.3214 9.39871 29.0445
1 9.51367 8.59171 29.0839
1 11.1118 9.36379 29.8676
1 11.9055 8.57009 29.8676
1 11.9105 9.37197 29.0886
1 11.1183 8.58117 29.0681
1 12.6992 9.36379 29.8676
1 13.4929 8.57009 29.8676
1 13.4757 9.36399 29.066
1 12.6912 8.59568 29.0777
1 14.2866 9.36379 29.8676
1 15.0803 8.57009 29.8676
1 15.0776 9.36299 29.0599
1 14.2795 8.56999 29.0643
1 15.874 9.36379 29.8676
1 16.6677 8.57009 29.8676
1 16.6812 9.39192 29.0688
1 15.8926 8.58256 29.0668
1 17.4614 9.36379 29.8676
1 18.2551 8.57009 29.8676
1 18.2697 9.36753 29.045
1 17.4167 8.56002 29.0766
1 19.0488 9.36379 29.8676
1 19.8425 8.57009 29.8676
1 19.8337 9.37531 29.0944
1 19.0264 8.58869 29.0652
1 20.6362 9.36379 29.8676
1 21.4299 8.57009 29.8676
1 21.4222 9.34056 29.0887
1 20.6214 8.56957 29.0723
1 22.2236 9.36379 29.8676
1 23.0173 8.57009 29.8676
1 23.0251 9.39567 29.0774
1 22.2346 8.5542 29.055
1 23.811 9.36379 29.8676
1 24.6047 8.57009 29.8676
1 24.6072 9.36242 29.0883
1 23.8054 8.57377 29.0925
1 25.3984 9.36379 29.8676
1 26.1921 8.57009 29.8676
1 26.185 9.36874 29.0909
1 25.4182 8.59459 29.0724
1 26.9858 9.36379 29.8676
1 27.7795 8.57009 29.8676
1 27.7547 9.34703 29.0762
1 26.949 8.58485 29.0764
1 28.5732 9.36379 29.8676
1 29.3669 8.57009 29.8676
1 29.2789 9.35579 29.0232
1 28.5619 8.57997 29.0581
1 0 7.77639 29.8676
1 0.793701 6.98268 29.8676
1 0.834594 7.76794 29.0874
1 0.0745067 6.97509 29.0441
1 1.5874 7.77639 29.8676
1 2.3811 6.98268 29.8676
1 2.39011 7.7621 29.0694
1 1.58687 7.00076 29.0654
1 3.1748 7.77639 29.8676
1 3.9685 6.98268 29.8676
1 3.98634 7.78815 29.0751
1 3.18452 6.99993 29.0778
1 4.7622 7.77639 29.8676
1 5.5559 6.98268 29.8676
1 5.5419 7.77939 29.0534
1 4.77183 6.96428 29.0959
1 6.3496 7.77639 29.8676
1 7.1433 6.98268 29.8676
1 7.14111 7.77222 29.0565
1 6.3432 7.01462 29.0765
1 7.93701 7.77639 29.8676
1 8.73071 6.98268 29.8676
1 8.75426 7.79636 29.0842
1 7.94416 6.98655 29.077
1 9.52441 7.77639 29.8676
1 10.3181 6.98268 29.8676
1 10.308 7.78435 29.0952
1 9.53737 6.97934 29.0824
1 11.1118 7.77639 29.8676
1 11.9055 6.98268 29.8676
1 11.9283 7.78295 29.0872
1 11.1095 7.00124 29.0714
1 12.6992 7.77639 29.8676
1 13.4929 6.98268 29.8676
1 13.5063 7.76074 29.086
1 12.7004 7.00048 29.073
1 14.2866 7.77639 29.8676
1 15.0803 6.98268 29.8676
1 15.0841 7.79335 29.0552
1 14.2574 6.99145 29.066
1 15.874 7.77639 29.8676
1 16.6677 6.98268 29.8676
1 16.6553 7.79634 29.0613
1 15.8694 6.99957 29.0784
1 17.4614 7.77639 29.8676
1 18.2551 6.98268 29.8676
1 18.2608 7.78024 29.083
1 17.4647 7.00279 29.0868
1 19.0488 7.77639 29.8676
1 19.8425 6.98268 29.8676
1 19.8431 7.77601 29.0917
1 19.0362 6.96994 29.0764
1 20.6362 7.77639 29.8676
1 21.4299 6.98268 29.8676
1 21.4376 7.78012 29.0627
1 20.6557 6.98025 29.0878
1 22.2236 7.77639 29.8676
1 23.0173 6.98268 29.8676
1 23.0381 7.79578 29.072
1 22.2365 6.98917 29.0717
1 23.811 7.77639 29.8676
1 24.6047 6.98268 29.8676
1 24.5942 7.79364 29.0848
1 23.8145 7.00537 29.0622
1 25.3984 7.77639 29.8676
1 26.1921 6.98268 29.8676
1 26.1658 7.74339 29.0789
1 25.3715 6.98871 29.0846
1 26.9858 7.77639 29.8676
1 27.7795 6.98268 29.8676
1 27.7412 7.78209 29.0902
1 26.9606 6.96724 29.0579
1 28.5732 7.77639 29.8676
1 29.3669 6.98268 29.8676
1 29.2809 7.7507 29.0218
1 28.5373 6.98999 29.0733
1 0 6.18898 29.8676
1 0.793701 5.39528 29.8676
1 0.840369 6.2145 29.0749
1 0.0647783 5.39029 29.03
1 1.5874 6.18898 29.8676
1 2.3811 5.39528 29.8676
1 2.39479 6.20583 29.0609
1 1.62571 5.40356 29.0418
1 3.1748 6.18898 29.8676
1 3.9685 5.39528 29.8676
1 3.96433 6.192 29.0586
1 3.18191 5.38123 29.069
1 4.7622 6.18898 29.8676
1 5.5559 5.39528 29.8676
1 5.59408 6.19094 29.059
1 4.78353 5.39566 29.0743
1 6.3496 6.18898 29.8676
1 7.1433 5.39528 29.8676
1 7.15966 6.19789 29.093
1 6.36197 5.38533 29.0674
1 7.93701 6.18898 29.8676
1 8.73071 5.39528 29.8676
1 8.70857 6.17281 29.0666
1 7.91028 5.37709 29.0736
1 9.52441 6.18898 29.8676
1 10.3181 5.39528 29.8676