9376
Atoms. Timestep: 700000
1 0 3.55271e-15 18.8228
1 0.793701 29.2063 18.8228
1 0.821348 29.9428 17.9865
1 0.0477311 29.1986 17.9881
1 1.5874 3.55271e-15 18.8228
1 2.3811 29.2063 18.8228
1 2.41055 29.9366 17.9977
1 1.61814 29.1829 18.0176
1 3.1748 3.55271e-15 18.8228
1 3.9685 29.2063 18.8228
1 3.96033 29.9707 18.0014
1 3.19349 29.1775 18.0485
1 4.7622 3.55271e-15 18.8228
1 5.5559 29.2063 18.8228
1 5.56353 29.9421 17.9948
1 4.77746 29.1703 18.0388
1 6.3496 3.55271e-15 18.8228
1 7.1433 29.2063 18.8228
1 7.1554 29.9281 18.003
1 6.37019 29.1916 18.0156
1 7.93701 3.55271e-15 18.8228
1 8.73071 29.2063 18.8228
1 8.73364 29.9385 17.9986
1 7.938 29.1813 18.005
1 9.52441 3.55271e-15 18.8228
1 10.3181 29.2063 18.8228
1 10.3317 29.9378 18.0082
1 9.54526 29.1828 18.0153
1 11.1118 3.55271e-15 18.8228
1 11.9055 29.2063 18.8228
1 11.9098 29.948 18.0057
1 11.1139 29.1553 18.0257
1 12.6992 3.55271e-15 18.8228
1 13.4929 29.2063 18.8228
1 13.4836 29.9412 18.0048
1 12.7069 29.1562 18.0232
1 14.2866 3.55271e-15 18.8228
1 15.0803 29.2063 18.8228
1 15.0847 29.9484 18.0036
1 14.2921 29.2051 18.0307
1 15.874 3.55271e-15 18.8228
1 16.6677 29.2063 18.8228
1 16.6838 29.9332 17.9699
1 15.8738 29.2058 18.0176
1 17.4614 3.55271e-15 18.8228
1 18.2551 29.2063 18.8228
1 18.243 29.9329 18
1 17.4612 29.1656 18.0277
1 19.0488 3.55271e-15 18.8228
1 19.8425 29.2063 18.8228
1 19.836 29.951 18.0022
1 19.046 29.1959 18.0213
1 20.6362 3.55271e-15 18.8228
1 21.4299 29.2063 18.8228
1 21.4157 29.914 17.9875
1 20.647 29.1801 18.0312
1 22.2236 3.55271e-15 18.8228
1 23.0173 29.2063 18.8228
1 23.009 29.9209 17.9972
1 22.2395 29.1748 18.0107
1 23.811 3.55271e-15 18.8228
1 24.6047 29.2063 18.8228
1 24.6055 29.9607 18.0086
1 23.8291 29.1871 18.0113
1 25.3984 3.55271e-15 18.8228
1 26.1921 29.2063 18.8228
1 26.1871 29.916 18.0127
1 25.3869 29.1935 18.0243
1 26.9858 3.55271e-15 18.8228
1 27.7795 29.2063 18.8228
1 27.7806 29.9378 18.0065
1 26.9789 29.1988 18.015
1 28.5732 3.55271e-15 18.8228
1 29.3669 29.2063 18.8228
1 29.2887 29.9439 17.9707
1 28.5409 29.171 18.0269
1 0 28.4126 18.8228
1 0.793701 27.6189 18.8228
1 0.81844 28.3987 18.0344
1 0.0769354 27.6002 17.9994
1 1.5874 28.4126 18.8228
1 2.3811 27.6189 18.8228
1 2.38521 28.3829 18.0215
1 1.59566 27.6124 18.0135
1 3.1748 28.4126 18.8228
1 3.9685 27.6189 18.8228
1 3.98834 28.4005 17.9841
1 3.1809 27.6182 18.0171
1 4.7622 28.4126 18.8228
1 5.5559 27.6189 18.8228
1 5.57293 28.4054 18.0196
1 4.78963 27.6258 18.0229
1 6.3496 28.4126 18.8228
1 7.1433 27.6189 18.8228
1 7.14664 28.4013 18.0366
1 6.35914 27.5923 18.047
1 7.93701 28.4126 18.8228
1 8.73071 27.6189 18.8228
1 8.75102 28.4035 17.9933
1 7.95134 27.6205 18.0432
1 9.52441 28.4126 18.8228
1 10.3181 27.6189 18.8228
1 10.3167 28.3899 18.0265
1 9.5537 27.6137 18.0129
1 11.1118 28.4126 18.8228
1 11.9055 27.6189 18.8228
1 11.9298 28.4092 18.0222
1 11.1449 27.6194 18.0403
1 12.6992 28.4126 18.8228
1 13.4929 27.6189 18.8228
1 13.4991 28.4006 18.0056
1 12.7111 27.6137 18.0249
1 14.2866 28.4126 18.8228
1 15.0803 27.6189 18.8228
1 15.0734 28.417 18.0265
1 14.2903 27.6038 18.0411
1 15.874 28.4126 18.8228
1 16.6677 27.6189 18.8228
1 16.6592 28.4055 18.0623
1 15.8642 27.6193 18.0292
1 17.4614 28.4126 18.8228
1 18.2551 27.6189 18.8228
1 18.2437 28.4154 18.0345
1 17.457 27.6305 18.0287
1 19.0488 28.4126 18.8228
1 19.8425 27.6189 18.8228
1 19.8185 28.4083 18.0405
1 19.0687 27.6277 18.0193
1 20.6362 28.4126 18.8228
1 21.4299 27.6189 18.8228
1 21.4421 28.4103 18.0107
1 20.6659 27.6255 18.0057
1 22.2236 28.4126 18.8228
1 23.0173 27.6189 18.8228
1 23.0338 28.3958 17.998
1 22.2151 27.6178 18.0348
1 23.811 28.4126 18.8228
1 24.6047 27.6189 18.8228
1 24.6113 28.3807 18.0121
1 23.81 27.5955 18.0309
1 25.3984 28.4126 18.8228
1 26.1921 27.6189 18.8228
1 26.1862 28.3991 18.0281
1 25.3969 27.5971 18.0109
1 26.9858 28.4126 18.8228
1 27.7795 27.6189 18.8228
1 27.7753 28.3989 18.0286
1 26.9721 27.6126 18.0159
1 28.5732 28.4126 18.8228
1 29.3669 27.6189 18.8228
1 29.2955 28.3941 18.0071
1 28.5465 27.6189 18.0453
1 0 26.8252 18.8228
1 0.793701 26.0315 18.8228
1 0.817444 26.832 18.0213
1 0.0685204 26.0324 18.0013
1 1.5874 26.8252 18.8228
1 2.3811 26.0315 18.8228
1 2.39967 26.8229 18.0267
1 1.59843 26.0543 18.0325
1 3.1748 26.8252 18.8228
1 3.9685 26.0315 18.8228
1 3.99055 26.826 18.0269
1 3.19344 26.0304 18.0368
1 4.7622 26.8252 18.8228
1 5.5559 26.0315 18.8228
1 5.56196 26.7999 18.0279
1 4.76937 26.0172 18.0316
1 6.3496 26.8252 18.8228
1 7.1433 26.0315 18.8228
1 7.15572 26.7952 18.0415
1 6.34489 26.0375 18.0527
1 7.93701 26.8252 18.8228
1 8.73071 26.0315 18.8228
1 8.73114 26.8296 18.0176
1 7.95064 26.0304 18.0506
1 9.52441 26.8252 18.8228
1 10.3181 26.0315 18.8228
1 10.3166 26.8427 18.0183
1 9.52115 26.0296 18.023
1 11.1118 26.8252 18.8228
1 11.9055 26.0315 18.8228
1 11.9081 26.8307 18.0229
1 11.1268 26.0291 18.0245
1 12.6992 26.8252 18.8228
1 13.4929 26.0315 18.8228
1 13.4858 26.783 18.0257
1 12.67 26.0006 18.0361
1 14.2866 26.8252 18.8228
1 15.0803 26.0315 18.8228
1 15.0789 26.8195 18.0234
1 14.2858 26.0118 18.029
1 15.874 26.8252 18.8228
1 16.6677 26.0315 18.8228
1 16.6387 26.8431 18.0388
1 15.8797 26.0495 18.0546
1 17.4614 26.8252 18.8228
1 18.2551 26.0315 18.8228
1 18.2561 26.8338 18.0384
1 17.4643 26.0525 18.0549
1 19.0488 26.8252 18.8228
1 19.8425 26.0315 18.8228
1 19.8757 26.8435 18.0579
1 19.0396 26.0379 18.0197
1 20.6362 26.8252 18.8228
1 21.4299 26.0315 18.8228
1 21.4576 26.8267 18.0154
1 20.6316 26.0123 18.04
1 22.2236 26.8252 18.8228
1 23.0173 26.0315 18.8228
1 23.0169 26.8108 18.0239
1 22.2103 26.0245 18.0215
1 23.811 26.8252 18.8228
1 24.6047 26.0315 18.8228
1 24.5712 26.8217 18.0468
1 23.8025 26.0273 18.0457
1 25.3984 26.8252 18.8228
1 26.1921 26.0315 18.8228
1 26.1621 26.8355 18.0473
1 25.3857 26.0273 18.0293
1 26.9858 26.8252 18.8228
1 27.7795 26.0315 18.8228
1 27.7441 26.8237 18.0169
1 26.9712 26.034 18.0344
1 28.5732 26.8252 18.8228
1 29.3669 26.0315 18.8228
1 29.2979 26.8239 17.9877
1 28.5385 26.0071 18.0213
1 0 25.2378 18.8228
1 0.793701 24.4441 18.8228
1 0.841703 25.2362 17.9979
1 0.0578806 24.4429 17.9919
1 1.5874 25.2378 18.8228
1 2.3811 24.4441 18.8228
1 2.39834 25.2325 18.0364
1 1.58142 24.4625 18.0049
1 3.1748 25.2378 18.8228
1 3.9685 24.4441 18.8228
1 3.96811 25.2414 18.0408
1 3.18821 24.4425 18.025
1 4.7622 25.2378 18.8228
1 5.5559 24.4441 18.8228
1 5.57273 25.2456 18.0203
1 4.76281 24.4496 18.0443
1 6.3496 25.2378 18.8228
1 7.1433 24.4441 18.8228
1 7.16565 25.2257 18.0596
1 6.36884 24.4364 18.0133
1 7.93701 25.2378 18.8228
1 8.73071 24.4441 18.8228
1 8.72276 25.2231 18.0181
1 7.94859 24.4146 18.0434
1 9.52441 25.2378 18.8228
1 10.3181 24.4441 18.8228
1 10.2943 25.2367 18.0288
1 9.51435 24.4318 18.0243
1 11.1118 25.2378 18.8228
1 11.9055 24.4441 18.8228
1 11.8951 25.2197 18.0244
1 11.0992 24.4459 18.0465
1 12.6992 25.2378 18.8228
1 13.4929 24.4441 18.8228
1 13.4839 25.2457 18.0283
1 12.6854 24.4066 18.0282
1 14.2866 25.2378 18.8228
1 15.0803 24.4441 18.8228
1 15.0934 25.231 18.0252
1 14.2899 24.4304 18.0344
1 15.874 25.2378 18.8228
1 16.6677 24.4441 18.8228
1 16.6906 25.2386 18.0126
1 15.8967 24.4309 18.0297
1 17.4614 25.2378 18.8228
1 18.2551 24.4441 18.8228
1 18.2568 25.2322 18.0294
1 17.4592 24.4342 18.0205
1 19.0488 25.2378 18.8228
1 19.8425 24.4441 18.8228
1 19.8515 25.2303 18.0044
1 19.0502 24.4361 18.0347
1 20.6362 25.2378 18.8228
1 21.4299 24.4441 18.8228
1 21.4286 25.2354 18.025
1 20.6355 24.4287 18.0342
1 22.2236 25.2378 18.8228
1 23.0173 24.4441 18.8228
1 23.0131 25.2451 18.0389
1 22.2098 24.4349 18.0367
1 23.811 25.2378 18.8228
1 24.6047 24.4441 18.8228
1 24.61 25.2371 18.0264
1 23.8182 24.4265 18.0629
1 25.3984 25.2378 18.8228
1 26.1921 24.4441 18.8228
1 26.1808 25.2167 18.0255
1 25.356 24.4509 18.0249
1 26.9858 25.2378 18.8228
1 27.7795 24.4441 18.8228
1 27.756 25.2356 18.0386
1 26.9764 24.4467 18.0424
1 28.5732 25.2378 18.8228
1 29.3669 24.4441 18.8228
1 29.2919 25.2197 18.0133
1 28.5538 24.4671 18.0021
1 0 23.6504 18.8228
1 0.793701 22.8567 18.8228
1 0.822042 23.6727 18.0137
1 0.0745429 22.8578 17.9855
1 1.5874 23.6504 18.8228
1 2.3811 22.8567 18.8228
1 2.38949 23.6582 18.0268
1 1.60286 22.8585 18.0463
1 3.1748 23.6504 18.8228
1 3.9685 22.8567 18.8228
1 3.94765 23.6645 18.0308
1 3.16703 22.8519 18.0461
1 4.7622 23.6504 18.8228
1 5.5559 22.8567 18.8228
1 5.55122 23.6637 18.0211
1 4.76891 22.8665 18.0439
1 6.3496 23.6504 18.8228
1 7.1433 22.8567 18.8228
1 7.1453 23.6405 18.0196
1 6.35739 22.8581 18.0449
1 7.93701 23.6504 18.8228
1 8.73071 22.8567 18.8228
1 8.72874 23.6185 18.064
1 7.93441 22.8361 18.0215
1 9.52441 23.6504 18.8228
1 10.3181 22.8567 18.8228
1 10.2981 23.664 18.0421
1 9.51446 22.8718 18.0302
1 11.1118 23.6504 18.8228
1 11.9055 22.8567 18.8228
1 11.8699 23.6567 18.0221
1 11.0677 22.8525 18.0368
1 12.6992 23.6504 18.8228
1 13.4929 22.8567 18.8228
1 13.4997 23.6522 18.0506
1 12.6895 22.8692 18.0325
1 14.2866 23.6504 18.8228
1 15.0803 22.8567 18.8228
1 15.1025 23.6468 18.0309
1 14.2846 22.8424 18.0373
1 15.874 23.6504 18.8228
1 16.6677 22.8567 18.8228
1 16.6807 23.6184 18.0206
1 15.9018 22.8614 18.0366
1 17.4614 23.6504 18.8228
1 18.2551 22.8567 18.8228
1 18.2574 23.6481 18.0286
1 17.4568 22.838 18.0414
1 19.0488 23.6504 18.8228
1 19.8425 22.8567 18.8228
1 19.8593 23.6256 18.0288
1 19.0499 22.8611 18.0501
1 20.6362 23.6504 18.8228
1 21.4299 22.8567 18.8228
1 21.421 23.6444 18.0425
1 20.633 22.8547 18.0184
1 22.2236 23.6504 18.8228
1 23.0173 22.8567 18.8228
1 22.9944 23.6514 18.0475
1 22.2142 22.8572 18.035
1 23.811 23.6504 18.8228
1 24.6047 22.8567 18.8228
1 24.5959 23.6425 18.0402
1 23.8077 22.855 18.0343
1 25.3984 23.6504 18.8228
1 26.1921 22.8567 18.8228
1 26.1806 23.6629 18.0213
1 25.406 22.869 18.0299
1 26.9858 23.6504 18.8228
1 27.7795 22.8567 18.8228
1 27.765 23.6516 18.0691
1 26.9572 22.8473 18.0415
1 28.5732 23.6504 18.8228
1 29.3669 22.8567 18.8228
1 29.2918 23.6464 17.9824
1 28.5364 22.863 18.0413
1 0 22.063 18.8228
1 0.793701 21.2693 18.8228
1 0.831763 22.0499 18.0128
1 0.0553381 21.2551 17.9859
1 1.5874 22.063 18.8228
1 2.3811 21.2693 18.8228
1 2.37384 22.0645 18.0109
1 1.62469 21.2429 18.0321
1 3.1748 22.063 18.8228
1 3.9685 21.2693 18.8228
1 3.99361 22.0661 18.0401
1 3.22176 21.2554 18.0136
1 4.7622 22.063 18.8228
1 5.5559 21.2693 18.8228
1 5.57175 22.0518 18.028
1 4.78581 21.2523 18.0512
1 6.3496 22.063 18.8228
1 7.1433 21.2693 18.8228
1 7.1351 22.0317 18.031
1 6.36962 21.2678 18.027
1 7.93701 22.063 18.8228
1 8.73071 21.2693 18.8228
1 8.73916 22.0621 18.0342
1 7.93096 21.2635 18.0187
1 9.52441 22.063 18.8228
1 10.3181 21.2693 18.8228
1 10.3299 22.0496 18.0312
1 9.53344 21.2711 18.018
1 11.1118 22.063 18.8228
1 11.9055 21.2693 18.8228
1 11.8811 22.0623 18.062
1 11.1165 21.2474 18.0451
1 12.6992 22.063 18.8228
1 13.4929 21.2693 18.8228
1 13.4636 22.0556 18.0368
1 12.6614 21.275 18.0573
1 14.2866 22.063 18.8228
1 15.0803 21.2693 18.8228
1 15.0795 22.0512 18.0306
1 14.2795 21.2675 18.0086
1 15.874 22.063 18.8228
1 16.6677 21.2693 18.8228
1 16.6665 22.0387 18.0528
1 15.879 21.2475 18.0465
1 17.4614 22.063 18.8228
1 18.2551 21.2693 18.8228
1 18.254 22.0658 18.016
1 17.4607 21.2901 18.0148
1 19.0488 22.063 18.8228
1 19.8425 21.2693 18.8228
1 19.8357 22.0491 18.0545
1 19.0703 21.2432 18.0164
1 20.6362 22.063 18.8228
1 21.4299 21.2693 18.8228
1 21.3996 22.0385 18.0438
1 20.6158 21.2841 18.0308
1 22.2236 22.063 18.8228
1 23.0173 21.2693 18.8228
1 23.0091 22.0651 18.0206
1 22.2365 21.2687 18.0124
1 23.811 22.063 18.8228
1 24.6047 21.2693 18.8228
1 24.5947 22.0565 18.0399
1 23.8082 21.2317 18.0013
1 25.3984 22.063 18.8228
1 26.1921 21.2693 18.8228
1 26.1757 22.0509 18.0534
1 25.3866 21.2609 18.0144
1 26.9858 22.063 18.8228
1 27.7795 21.2693 18.8228
1 27.7652 22.0735 18.0308
1 26.9858 21.2653 18.0343
1 28.5732 22.063 18.8228
1 29.3669 21.2693 18.8228
1 29.3061 22.0717 18.0092
1 28.546 21.2469 18.0376
1 0 20.4756 18.8228
1 0.793701 19.6819 18.8228
1 0.822122 20.4716 18.0246
1 0.063161 19.6824 17.997
1 1.5874 20.4756 18.8228
1 2.3811 19.6819 18.8228
1 2.4144 20.4639 18.0249
1 1.62361 19.6906 18.0239
1 3.1748 20.4756 18.8228
1 3.9685 19.6819 18.8228
1 3.98809 20.4798 18.0197
1 3.18338 19.683 18.0473
1 4.7622 20.4756 18.8228
1 5.5559 19.6819 18.8228
1 5.55064 20.4683 18.0069
1 4.77225 19.6789 18.0514
1 6.3496 20.4756 18.8228
1 7.1433 19.6819 18.8228
1 7.14737 20.4555 18.0223
1 6.36602 19.6914 18.0386
1 7.93701 20.4756 18.8228
1 8.73071 19.6819 18.8228
1 8.73371 20.4609 18.0002
1 7.94492 19.6973 18.0381
1 9.52441 20.4756 18.8228
1 10.3181 19.6819 18.8228
1 10.3177 20.4873 18.0049
1 9.52464 19.6723 18.0053
1 11.1118 20.4756 18.8228
1 11.9055 19.6819 18.8228
1 11.913 20.464 18.0253
1 11.1057 19.6618 18.0162
1 12.6992 20.4756 18.8228
1 13.4929 19.6819 18.8228
1 13.4683 20.5021 18.0404
1 12.7099 19.657 18.017
1 14.2866 20.4756 18.8228
1 15.0803 19.6819 18.8228
1 15.0803 20.459 18.0143
1 14.2665 19.7167 18.0024
1 15.874 20.4756 18.8228
1 16.6677 19.6819 18.8228
1 16.6602 20.481 18.0401
1 15.878 19.7009 18.0351
1 17.4614 20.4756 18.8228
1 18.2551 19.6819 18.8228
1 18.2578 20.4742 18.03
1 17.4639 19.6923 18.0135
1 19.0488 20.4756 18.8228
1 19.8425 19.6819 18.8228
1 19.8613 20.4899 18.0351
1 19.0462 19.6711 18.0187
1 20.6362 20.4756 18.8228
1 21.4299 19.6819 18.8228
1 21.4137 20.4897 18.066
1 20.6281 19.6862 18.0172
1 22.2236 20.4756 18.8228
1 23.0173 19.6819 18.8228
1 23.0092 20.463 18.0396
1 22.1971 19.6767 18.0295
1 23.811 20.4756 18.8228
1 24.6047 19.6819 18.8228
1 24.5934 20.4471 18.0042
1 23.8055 19.6875 18.0152
1 25.3984 20.4756 18.8228
1 26.1921 19.6819 18.8228
1 26.1923 20.4556 18.0349
1 25.4114 19.674 18.0149
1 26.9858 20.4756 18.8228
1 27.7795 19.6819 18.8228
1 27.7731 20.4636 18.0337
1 26.9965 19.6652 18.0226
1 28.5732 20.4756 18.8228
1 29.3669 19.6819 18.8228
1 29.3112 20.4692 18.0063
1 28.5419 19.6872 18.0324
1 0 18.8882 18.8228
1 0.793701 18.0945 18.8228
1 0.842935 18.8783 18.0479
1 0.0923576 18.0843 18.0215
1 1.5874 18.8882 18.8228
1 2.3811 18.0945 18.8228
1 2.38848 18.8488 18.0569
1 1.58421 18.0773 18.0416
1 3.1748 18.8882 18.8228
1 3.9685 18.0945 18.8228
1 3.9672 18.8826 17.9974
1 3.17058 18.1005 18.0561
1 4.7622 18.8882 18.8228
1 5.5559 18.0945 18.8228
1 5.54937 18.906 18.0163
1 4.7585 18.1059 18.0238
1 6.3496 18.8882 18.8228
1 7.1433 18.0945 18.8228
1 7.11718 18.8832 18.025
1 6.32985 18.1107 18.0317
1 7.93701 18.8882 18.8228
1 8.73071 18.0945 18.8228
1 8.70785 18.8792 18.0151
1 7.92553 18.0882 18.0554
1 9.52441 18.8882 18.8228
1 10.3181 18.0945 18.8228
1 10.2997 18.8872 18.0318
1 9.50923 18.0869 18.0293
1 11.1118 18.8882 18.8228
1 11.9055 18.0945 18.8228
1 11.8872 18.878 18.0271
1 11.1116 18.0889 18.0233
1 12.6992 18.8882 18.8228
1 13.4929 18.0945 18.8228
1 13.5037 18.9045 18.0243
1 12.7036 18.0986 18.0296
1 14.2866 18.8882 18.8228
1 15.0803 18.0945 18.8228
1 15.0613 18.8925 18.0336
1 14.2839 18.1114 18.0315
1 15.874 18.8882 18.8228
1 16.6677 18.0945 18.8228
1 16.6962 18.8865 18.0476
1 15.8408 18.1135 18.0354
1 17.4614 18.8882 18.8228
1 18.2551 18.0945 18.8228
1 18.2268 18.887 18.0217
1 17.4668 18.0852 18.0197
1 19.0488 18.8882 18.8228
1 19.8425 18.0945 18.8228
1 19.8614 18.8916 17.9991
1 19.0391 18.1229 18.0316
1 20.6362 18.8882 18.8228
1 21.4299 18.0945 18.8228
1 21.405 18.8796 18.0201
1 20.6445 18.0813 18.0172
1 22.2236 18.8882 18.8228
1 23.0173 18.0945 18.8228
1 23.013 18.8836 18.0253
1 22.2207 18.0941 18.0383
1 23.811 18.8882 18.8228
1 24.6047 18.0945 18.8228
1 24.6257 18.8995 18.0418
1 23.798 18.0807 18.0478
1 25.3984 18.8882 18.8228
1 26.1921 18.0945 18.8228
1 26.1997 18.8922 18.0513
1 25.423 18.0777 18.0443
1 26.9858 18.8882 18.8228
1 27.7795 18.0945 18.8228
1 27.7518 18.8966 18.0322
1 26.9934 18.103 18.0144
1 28.5732 18.8882 18.8228
1 29.3669 18.0945 18.8228
1 29.3 18.8804 18.0031
1 28.5483 18.0856 18.0172
1 0 17.3008 18.8228
1 0.793701 16.5071 18.8228
1 0.842007 17.2973 18.0178
1 0.0756234 16.4605 17.9884
1 1.5874 17.3008 18.8228
1 2.3811 16.5071 18.8228
1 2.39615 17.3 18.0356
1 1.60443 16.4874 18.0229
1 3.1748 17.3008 18.8228
1 3.9685 16.5071 18.8228
1 3.96684 17.2943 18.0411
1 3.19369 16.5077 18.0292
1 4.7622 17.3008 18.8228
1 5.5559 16.5071 18.8228
1 5.55964 17.2961 18.0543
1 4.75162 16.4937 18.0265
1 6.3496 17.3008 18.8228
1 7.1433 16.5071 18.8228
1 7.13542 17.3132 18.0229
1 6.36588 16.498 18.038
1 7.93701 17.3008 18.8228
1 8.73071 16.5071 18.8228
1 8.73516 17.2784 18.0637
1 7.9263 16.4972 18.0295
1 9.52441 17.3008 18.8228
1 10.3181 16.5071 18.8228
1 10.3135 17.2856 18.0301
1 9.53123 16.5338 18.0531
1 11.1118 17.3008 18.8228
1 11.9055 16.5071 18.8228
1 11.9101 17.2846 18.0233
1 11.1515 16.4998 17.9971
1 12.6992 17.3008 18.8228
1 13.4929 16.5071 18.8228
1 13.4891 17.3117 18.031
1 12.7 16.524 18.0151
1 14.2866 17.3008 18.8228
1 15.0803 16.5071 18.8228
1 15.0704 17.3078 17.9918
1 14.28 16.5279 18.0377
1 15.874 17.3008 18.8228
1 16.6677 16.5071 18.8228
1 16.6697 17.3072 18.0178
1 15.8714 16.5151 18.0194
1 17.4614 17.3008 18.8228
1 18.2551 16.5071 18.8228
1 18.2512 17.3074 18.0222
1 17.4638 16.4998 18.0242
1 19.0488 17.3008 18.8228
1 19.8425 16.5071 18.8228
1 19.8225 17.3136 18.0276
1 19.0408 16.4927 18.0252
1 20.6362 17.3008 18.8228
1 21.4299 16.5071 18.8228
1 21.4256 17.2536 18.0234
1 20.6337 16.5361 18.0191
1 22.2236 17.3008 18.8228
1 23.0173 16.5071 18.8228
1 23.0278 17.2818 18.0407
1 22.2292 16.4854 18.037
1 23.811 17.3008 18.8228
1 24.6047 16.5071 18.8228
1 24.6086 17.3069 18.0538
1 23.8461 16.4592 18.0313
1 25.3984 17.3008 18.8228
1 26.1921 16.5071 18.8228
1 26.2059 17.2864 18.0339
1 25.4109 16.4981 18.0514
1 26.9858 17.3008 18.8228
1 27.7795 16.5071 18.8228
1 27.7536 17.3033 18.0492
1 26.967 16.4887 18.0584
1 28.5732 17.3008 18.8228
1 29.3669 16.5071 18.8228
1 29.3048 17.2705 18.003
1 28.5489 16.5286 18.0401
1 0 15.7134 18.8228
1 0.793701 14.9197 18.8228
1 0.820216 15.6711 18.0239
1 0.0553266 14.9122 17.9995
1 1.5874 15.7134 18.8228
1 2.3811 14.9197 18.8228
1 2.40334 15.7143 18.031
1 1.60639 14.9168 18.0135
1 3.1748 15.7134 18.8228
1 3.9685 14.9197 18.8228
1 3.94975 15.6951 18.0294
1 3.18093 14.9031 18.0286
1 4.7622 15.7134 18.8228
1 5.5559 14.9197 18.8228
1 5.57076 15.7118 18.0422
1 4.76919 14.9294 18.0253
1 6.3496 15.7134 18.8228
1 7.1433 14.9197 18.8228
1 7.14773 15.702 18.0213
1 6.37685 14.9093 18.0288
1 7.93701 15.7134 18.8228
1 8.73071 14.9197 18.8228
1 8.72689 15.721 18.0554
1 7.92631 14.9258 18.0367
1 9.52441 15.7134 18.8228
1 10.3181 14.9197 18.8228
1 10.3341 15.7259 18.0083
1 9.52617 14.9341 18.0396
1 11.1118 15.7134 18.8228
1 11.9055 14.9197 18.8228
1 11.9339 15.6846 18.0187
1 11.111 14.9111 18.0279
1 12.6992 15.7134 18.8228
1 13.4929 14.9197 18.8228
1 13.4996 15.7283 18.0357
1 12.6816 14.9318 18.0285
1 14.2866 15.7134 18.8228
1 15.0803 14.9197 18.8228
1 15.0676 15.7027 18.0206
1 14.308 14.9201 18.024
1 15.874 15.7134 18.8228
1 16.6677 14.9197 18.8228
1 16.6736 15.7293 18.0461
1 15.8727 14.91 18.0416
1 17.4614 15.7134 18.8228
1 18.2551 14.9197 18.8228
1 18.2524 15.6842 18.0379
1 17.4499 14.9343 18.0169
1 19.0488 15.7134 18.8228
1 19.8425 14.9197 18.8228
1 19.8325 15.7217 18.0237
1 19.0682 14.9171 18.0288
1 20.6362 15.7134 18.8228
1 21.4299 14.9197 18.8228
1 21.4187 15.7014 18.053
1 20.6457 14.9235 18.0264
1 22.2236 15.7134 18.8228
1 23.0173 14.9197 18.8228
1 23.0103 15.7133 18.0639
1 22.225 14.9378 18.052
1 23.811 15.7134 18.8228
1 24.6047 14.9197 18.8228
1 24.6079 15.7094 18.0418
1 23.7791 14.9217 18.0397
1 25.3984 15.7134 18.8228
1 26.1921 14.9197 18.8228
1 26.1938 15.7087 18.0345
1 25.3931 14.9256 18.0297
1 26.9858 15.7134 18.8228
1 27.7795 14.9197 18.8228
1 27.7522 15.721 18.043
1 26.9906 14.9189 18.0501
1 28.5732 15.7134 18.8228
1 29.3669 14.9197 18.8228
1 29.3119 15.7076 18.0235
1 28.5702 14.9284 18.0114
1 0 14.126 18.8228
1 0.793701 13.3323 18.8228
1 0.818786 14.1477 18.0098
1 0.0426297 13.349 17.9957
1 1.5874 14.126 18.8228
1 2.3811 13.3323 18.8228
1 2.39111 14.1091 18.0406
1 1.60444 13.3233 18.006
1 3.1748 14.126 18.8228
1 3.9685 13.3323 18.8228
1 3.97161 14.1303 18.0473
1 3.16283 13.3574 18.0288
1 4.7622 14.126 18.8228
1 5.5559 13.3323 18.8228
1 5.55849 14.1288 18.0593
1 4.77217 13.3329 18.0373
1 6.3496 14.126 18.8228
1 7.1433 13.3323 18.8228
1 7.15398 14.1404 18.0282
1 6.35587 13.332 18.0095
1 7.93701 14.126 18.8228
1 8.73071 13.3323 18.8228
1 8.71882 14.1382 18.0191
1 7.9353 13.3187 18.0121
1 9.52441 14.126 18.8228
1 10.3181 13.3323 18.8228
1 10.3289 14.1242 18.0197
1 9.50361 13.3182 18.0249
1 11.1118 14.126 18.8228
1 11.9055 13.3323 18.8228
1 11.9059 14.1223 18.0045
1 11.1049 13.3292 18.0452
1 12.6992 14.126 18.8228
1 13.4929 13.3323 18.8228
1 13.5088 14.104 18.0261
1 12.6987 13.3545 18.0346
1 14.2866 14.126 18.8228
1 15.0803 13.3323 18.8228
1 15.1082 14.1392 17.9955
1 14.3191 13.3319 18.0187
1 15.874 14.126 18.8228
1 16.6677 13.3323 18.8228
1 16.6765 14.1266 18.0191
1 15.8821 13.3363 17.9945
1 17.4614 14.126 18.8228
1 18.2551 13.3323 18.8228
1 18.2475 14.1572 18.0508
1 17.4829 13.3415 18.0265
1 19.0488 14.126 18.8228
1 19.8425 13.3323 18.8228
1 19.8659 14.1108 18.0287
1 19.0726 13.3447 18.0506
1 20.6362 14.126 18.8228
1 21.4299 13.3323 18.8228
1 21.4186 14.1148 18.0317
1 20.6438 13.3371 18.0218
1 22.2236 14.126 18.8228
1 23.0173 13.3323 18.8228
1 23.007 14.1005 18.0393
1 22.2182 13.3018 18.0183
1 23.811 14.126 18.8228
1 24.6047 13.3323 18.8228
1 24.603 14.1181 18.036
1 23.812 13.3281 18.0121
1 25.3984 14.126 18.8228
1 26.1921 13.3323 18.8228
1 26.1816 14.1448 18.043
1 25.3947 13.3298 18.0465
1 26.9858 14.126 18.8228
1 27.7795 13.3323 18.8228
1 27.7645 14.1448 18.0456
1 26.9788 13.357 18.0232
1 28.5732 14.126 18.8228
1 29.3669 13.3323 18.8228
1 29.2876 14.1168 18.0056
1 28.5416 13.3329 18.0422
1 0 12.5386 18.8228
1 0.793701 11.7449 18.8228
1 0.793781 12.5597 17.9975
1 0.0552072 11.7464 17.9984
1 1.5874 12.5386 18.8228
1 2.3811 11.7449 18.8228
1 2.41584 12.5411 18.0405
1 1.5882 11.7485 18.0427
1 3.1748 12.5386 18.8228
1 3.9685 11.7449 18.8228
1 3.97506 12.5512 18.0375
1 3.19107 11.7509 18.0396
1 4.7622 12.5386 18.8228
1 5.5559 11.7449 18.8228
1 5.55901 12.5499 18.0238
1 4.77529 11.7574 18.0452
1 6.3496 12.5386 18.8228
1 7.1433 11.7449 18.8228
1 7.16402 12.5413 18.0182
1 6.33896 11.7323 18.0236
1 7.93701 12.5386 18.8228
1 8.73071 11.7449 18.8228
1 8.7251 12.5237 18.0255
1 7.94821 11.752 18.0363
1 9.52441 12.5386 18.8228
1 10.3181 11.7449 18.8228
1 10.2911 12.5201 18.0188
1 9.52804 11.7229 18.0304
1 11.1118 12.5386 18.8228
1 11.9055 11.7449 18.8228
1 11.9002 12.5254 18.039
1 11.1065 11.7208 18.0193
1 12.6992 12.5386 18.8228
1 13.4929 11.7449 18.8228
1 13.5264 12.531 18.0024
1 12.7045 11.738 18.036
1 14.2866 12.5386 18.8228
1 15.0803 11.7449 18.8228
1 15.0799 12.5565 18.0548
1 14.3064 11.74 18.0195
1 15.874 12.5386 18.8228
1 16.6677 11.7449 18.8228
1 16.7081 12.5171 18.0319
1 15.8704 11.7278 18.0301
1 17.4614 12.5386 18.8228
1 18.2551 11.7449 18.8228
1 18.2718 12.5414 18.045
1 17.477 11.7502 18.0468
1 19.0488 12.5386 18.8228
1 19.8425 11.7449 18.8228
1 19.8436 12.541 18.0317
1 19.0569 11.7381 18.0464
1 20.6362 12.5386 18.8228
1 21.4299 11.7449 18.8228
1 21.4171 12.5471 18.0294
1 20.6344 11.7222 18.0364
1 22.2236 12.5386 18.8228
1 23.0173 11.7449 18.8228
1 23.0213 12.5486 18.0494
1 22.1917 11.7386 18.0182
1 23.811 12.5386 18.8228
1 24.6047 11.7449 18.8228
1 24.5924 12.5411 18.0303
1 23.8062 11.7537 18.054
1 25.3984 12.5386 18.8228
1 26.1921 11.7449 18.8228
1 26.2098 12.5527 18.0265
1 25.3909 11.7457 18.0299
1 26.9858 12.5386 18.8228
1 27.7795 11.7449 18.8228
1 27.7682 12.5291 18.0225
1 26.9758 11.7682 18.0259
1 28.5732 12.5386 18.8228
1 29.3669 11.7449 18.8228
1 29.2786 12.5131 17.9991
1 28.5489 11.7457 18.0167
1 0 10.9512 18.8228
1 0.793701 10.1575 18.8228
1 0.813751 10.9505 18.0293
1 0.0517313 10.186 17.9709
1 1.5874 10.9512 18.8228
1 2.3811 10.1575 18.8228
1 2.38794 10.9792 17.9957
1 1.59033 10.1644 18.0123
1 3.1748 10.9512 18.8228
1 3.9685 10.1575 18.8228
1 3.99733 10.9406 18.0502
1 3.17311 10.1838 18.0042
1 4.7622 10.9512 18.8228
1 5.5559 10.1575 18.8228
1 5.55652 10.9378 18.0284
1 4.76851 10.1471 18.029
1 6.3496 10.9512 18.8228
1 7.1433 10.1575 18.8228
1 7.16148 10.9719 18.0396
1 6.34002 10.1647 18.0135
1 7.93701 10.9512 18.8228
1 8.73071 10.1575 18.8228
1 8.72122 10.9448 18.0301
1 7.91769 10.1401 18.0358
1 9.52441 10.9512 18.8228
1 10.3181 10.1575 18.8228
1 10.3032 10.937 18.0268
1 9.5434 10.186 18.029
1 11.1118 10.9512 18.8228
1 11.9055 10.1575 18.8228
1 11.8908 10.9476 18.0316
1 11.1201 10.1492 18.0345
1 12.6992 10.9512 18.8228
1 13.4929 10.1575 18.8228
1 13.4805 10.9286 18.041
1 12.6858 10.1645 18.0295
1 14.2866 10.9512 18.8228
1 15.0803 10.1575 18.8228
1 15.0893 10.9062 18.0373
1 14.2836 10.1465 18.0451
1 15.874 10.9512 18.8228
1 16.6677 10.1575 18.8228
1 16.67 10.9392 18.0554
1 15.8705 10.1263 18.0024
1 17.4614 10.9512 18.8228
1 18.2551 10.1575 18.8228
1 18.2456 10.9389 18.0348
1 17.4549 10.165 18.0538
1 19.0488 10.9512 18.8228
1 19.8425 10.1575 18.8228
1 19.8542 10.9584 18.034
1 19.0362 10.1534 18.0423
1 20.6362 10.9512 18.8228
1 21.4299 10.1575 18.8228
1 21.4255 10.9099 18.0357
1 20.6424 10.1705 18.0098
1 22.2236 10.9512 18.8228
1 23.0173 10.1575 18.8228
1 23.0078 10.9414 18.027
1 22.2097 10.148 18.0391
1 23.811 10.9512 18.8228
1 24.6047 10.1575 18.8228
1 24.5987 10.9482 18.0162
1 23.8234 10.1425 18.0085
1 25.3984 10.9512 18.8228
1 26.1921 10.1575 18.8228
1 26.2072 10.9596 18.0584
1 25.4301 10.1502 18.0381
1 26.9858 10.9512 18.8228
1 27.7795 10.1575 18.8228
1 27.7679 10.956 18.0333
1 26.9636 10.1594 18.0163
1 28.5732 10.9512 18.8228
1 29.3669 10.1575 18.8228
1 29.3025 10.9662 17.9855
1 28.5617 10.1461 18.033
1 0 9.36379 18.8228
1 0.793701 8.57009 18.8228
1 0.805716 9.38259 18.0345
1 0.0565439 8.58428 17.9886
1 1.5874 9.36379 18.8228
1 2.3811 8.57009 18.8228
1 2.36435 9.36861 18.0187
1 1.58213 8.58088 18.031
1 3.1748 9.36379 18.8228
1 3.9685 8.57009 18.8228
1 3.97218 9.38829 18.026
1 3.18368 8.59163 18.0181
1 4.7622 9.36379 18.8228
1 5.5559 8.57009 18.8228
1 5.53501 9.33504 18.0197
1 4.74668 8.57118 18.0308
1 6.3496 9.36379 18.8228
1 7.1433 8.57009 18.8228
1 7.16318 9.37146 18.0589
1 6.34107 8.58836 18.0109
1 7.93701 9.36379 18.8228
1 8.73071 8.57009 18.8228
1 8.7699 9.3593 18.0203
1 7.96339 8.55622 18.0174
1 9.52441 9.36379 18.8228
1 10.3181 8.57009 18.8228
1 10.3185 9.38217 18.0306
1 9.53702 8.56089 18.0203
1 11.1118 9.36379 18.8228
1 11.9055 8.57009 18.8228
1 11.9102 9.33943 18.0202
1 11.1143 8.57242 18.0322
1 12.6992 9.36379 18.8228
1 13.4929 8.57009 18.8228
1 13.4581 9.38148 18.0713
1 12.7116 8.57188 18.0389
1 14.2866 9.36379 18.8228
1 15.0803 8.57009 18.8228
1 15.0917 9.35563 18.0578
1 14.2901 8.58917 18.0342
1 15.874 9.36379 18.8228
1 16.6677 8.57009 18.8228
1 16.6767 9.35068 18.0309
1 15.8912 8.57748 18.0465
1 17.4614 9.36379 18.8228
1 18.2551 8.57009 18.8228
1 18.2434 9.3607 18.0309
1 17.4868 8.57072 18.0367
1 19.0488 9.36379 18.8228
1 19.8425 8.57009 18.8228
1 19.8347 9.36822 18.0291
1 19.0277 8.54336 18.0296
1 20.6362 9.36379 18.8228
1 21.4299 8.57009 18.8228
1 21.4295 9.3653 18.0256
1 20.6159 8.56551 18.0049
1 22.2236 9.36379 18.8228
1 23.0173 8.57009 18.8228
1 23.0139 9.3596 18.0351
1 22.2166 8.58918 18.0091
1 23.811 9.36379 18.8228
1 24.6047 8.57009 18.8228
1 24.5967 9.36048 18.0304
1 23.8127 8.56796 18.0295
1 25.3984 9.36379 18.8228
1 26.1921 8.57009 18.8228
1 26.215 9.35135 18.0197
1 25.4001 8.58401 18.0302
1 26.9858 9.36379 18.8228
1 27.7795 8.57009 18.8228
1 27.7618 9.38359 18.0337
1 26.9722 8.59044 18.0216
1 28.5732 9.36379 18.8228
1 29.3669 8.57009 18.8228
1 29.3061 9.36748 17.987
1 28.5547 8.56215 18.0286
1 0 7.77639 18.8228
1 0.793701 6.98268 18.8228
1 0.823118 7.78884 18.0041
1 0.066077 6.96662 17.9959
1 1.5874 7.77639 18.8228
1 2.3811 6.98268 18.8228
1 2.39724 7.78339 18.035
1 1.61315 6.98685 18.0154
1 3.1748 7.77639 18.8228
1 3.9685 6.98268 18.8228
1 3.9568 7.76191 18.0327
1 3.17642 6.96727 18.0397
1 4.7622 7.77639 18.8228
1 5.5559 6.98268 18.8228
1 5.54935 7.78244 18.0407
1 4.75046 6.98011 18.0485
1 6.3496 7.77639 18.8228
1 7.1433 6.98268 18.8228
1 7.1252 7.77638 18.0327
1 6.36063 6.97708 18.0215
1 7.93701 7.77639 18.8228
1 8.73071 6.98268 18.8228
1 8.70917 7.77443 18.0252
1 7.94055 6.97432 18.0342
1 9.52441 7.77639 18.8228
1 10.3181 6.98268 18.8228
1 10.3309 7.7527 18.0408
1 9.51725 6.98093 18.0435
1 11.1118 7.77639 18.8228
1 11.9055 6.98268 18.8228
1 11.8955 7.79297 18.0266
1 11.1322 6.9741 18.0339
1 12.6992 7.77639 18.8228
1 13.4929 6.98268 18.8228
1 13.5153 7.79098 18.0497
1 12.7111 6.97022 18.0315
1 14.2866 7.77639 18.8228
1 15.0803 6.98268 18.8228
1 15.1067 7.78529 18.0146
1 14.2962 7.00622 18.0237
1 15.874 7.77639 18.8228
1 16.6677 6.98268 18.8228
1 16.6655 7.78815 18.0228
1 15.8558 7.00291 18.0416
1 17.4614 7.77639 18.8228
1 18.2551 6.98268 18.8228
1 18.2603 7.7481 18.0307
1 17.4486 7.00091 18.0146
1 19.0488 7.77639 18.8228
1 19.8425 6.98268 18.8228
1 19.8438 7.77956 18.0249
1 19.047 6.98407 18.0156
1 20.6362 7.77639 18.8228
1 21.4299 6.98268 18.8228
1 21.4187 7.77566 18.0222
1 20.617 6.98364 18.0459
1 22.2236 7.77639 18.8228
1 23.0173 6.98268 18.8228
1 23.0019 7.77685 18.0443
1 22.2096 6.9849 18.012
1 23.811 7.77639 18.8228
1 24.6047 6.98268 18.8228
1 24.6131 7.7996 18.0599
1 23.8321 6.98687 18.0394
1 25.3984 7.77639 18.8228
1 26.1921 6.98268 18.8228
1 26.1848 7.7822 18.0179
1 25.4018 7.01868 18.0368
1 26.9858 7.77639 18.8228
1 27.7795 6.98268 18.8228
1 27.7439 7.76816 18.0324
1 26.9734 6.96927 18.0451
1 28.5732 7.77639 18.8228
1 29.3669 6.98268 18.8228
1 29.3041 7.78579 17.9941
1 28.5637 6.98532 18.0368
1 0 6.18898 18.8228
1 0.793701 5.39528 18.8228
1 0.816001 6.19154 18.0263
1 0.0539552 5.41978 17.9889
1 1.5874 6.18898 18.8228
1 2.3811 5.39528 18.8228
1 2.3703 6.21563 18.0036
1 1.62136 5.41231 18.0146
1 3.1748 6.18898 18.8228
1 3.9685 5.39528 18.8228
1 3.97884 6.16064 18.0356
1 3.19153 5.40226 18.0339
1 4.7622 6.18898 18.8228
1 5.5559 5.39528 18.8228
1 5.5434 6.19438 18.0386
1 4.78044 5.38493 18.0344
1 6.3496 6.18898 18.8228
1 7.1433 5.39528 18.8228
1 7.1474 6.17569 18.06
1 6.35174 5.39683 18.0561
1 7.93701 6.18898 18.8228
1 8.73071 5.39528 18.8228
1 8.75429 6.1758 18.0516
1 7.94881 5.37804 18.0447
1 9.52441 6.18898 18.8228
1 10.3181 5.39528 18.8228