9376
Atoms. Timestep: 4000000
1 30 3.55271e-15 10.7756
1 0.793701 29.2063 10.7756
1 0.827655 29.9038 9.94375
1 0.0737719 29.1757 9.98849
1 1.5874 3.55271e-15 10.7756
1 2.3811 29.2063 10.7756
1 2.41524 29.9213 9.97184
1 1.6119 29.1791 9.96105
1 3.1748 3.55271e-15 10.7756
1 3.9685 29.2063 10.7756
1 3.98697 29.9434 9.94869
1 3.2023 29.1871 9.97741
1 4.7622 3.55271e-15 10.7756
1 5.5559 29.2063 10.7756
1 5.57944 29.9164 9.95595
1 4.76705 29.1695 9.94738
1 6.3496 3.55271e-15 10.7756
1 7.1433 29.2063 10.7756
1 7.12571 29.9441 9.94863
1 6.36264 29.1809 9.98087
1 7.93701 3.55271e-15 10.7756
1 8.73071 29.2063 10.7756
1 8.73378 29.9057 9.95822
1 7.91949 29.1849 9.9602
1 9.52441 3.55271e-15 10.7756
1 10.3181 29.2063 10.7756
1 10.3299 29.9311 9.95243
1 9.56294 29.2091 9.99193
1 11.1118 3.55271e-15 10.7756
1 11.9055 29.2063 10.7756
1 11.9078 29.9168 9.93255
1 11.1209 29.1867 9.99241
1 12.6992 3.55271e-15 10.7756
1 13.4929 29.2063 10.7756
1 13.4658 29.9543 9.93093
1 12.6908 29.1799 9.97929
1 14.2866 3.55271e-15 10.7756
1 15.0803 29.2063 10.7756
1 15.0674 29.9407 9.9549
1 14.2756 29.1833 9.98373
1 15.874 3.55271e-15 10.7756
1 16.6677 29.2063 10.7756
1 16.6543 29.9233 9.96043
1 15.9017 29.1842 9.9651
1 17.4614 3.55271e-15 10.7756
1 18.2551 29.2063 10.7756
1 18.2402 29.9212 9.9424
1 17.474 29.1655 9.98912
1 19.0488 3.55271e-15 10.7756
1 19.8425 29.2063 10.7756
1 19.8476 29.9256 9.95518
1 19.0391 29.1786 9.96544
1 20.6362 3.55271e-15 10.7756
1 21.4299 29.2063 10.7756
1 21.4321 29.914 9.9447
1 20.6283 29.1819 9.95762
1 22.2236 3.55271e-15 10.7756
1 23.0173 29.2063 10.7756
1 23.0292 29.9365 9.96264
1 22.2449 29.2026 9.97641
1 23.811 3.55271e-15 10.7756
1 24.6047 29.2063 10.7756
1 24.5946 29.942 9.95031
1 23.7892 29.174 9.96944
1 25.3984 3.55271e-15 10.7756
1 26.1921 29.2063 10.7756
1 26.2 29.9274 9.97996
1 25.3966 29.1743 9.98497
1 26.9858 3.55271e-15 10.7756
1 27.7795 29.2063 10.7756
1 27.7705 29.9252 9.97074
1 26.9744 29.166 9.96079
1 28.5732 3.55271e-15 10.7756
1 29.3669 29.2063 10.7756
1 29.3199 29.9297 9.93568
1 28.5358 29.1714 9.96341
1 30 28.4126 10.7756
1 0.793701 27.6189 10.7756
1 0.799457 28.4097 9.96899
1 0.0603373 27.6215 9.96148
1 1.5874 28.4126 10.7756
1 2.3811 27.6189 10.7756
1 2.38463 28.4052 10.0154
1 1.59924 27.6106 9.98547
1 3.1748 28.4126 10.7756
1 3.9685 27.6189 10.7756
1 3.9445 28.369 9.97818
1 3.17386 27.5868 9.98796
1 4.7622 28.4126 10.7756
1 5.5559 27.6189 10.7756
1 5.5788 28.3981 9.97219
1 4.74636 27.5895 10.003
1 6.3496 28.4126 10.7756
1 7.1433 27.6189 10.7756
1 7.1393 28.3841 9.99532
1 6.33127 27.5928 9.9874
1 7.93701 28.4126 10.7756
1 8.73071 27.6189 10.7756
1 8.74892 28.4217 9.97106
1 7.94142 27.6149 9.98942
1 9.52441 28.4126 10.7756
1 10.3181 27.6189 10.7756
1 10.3353 28.413 9.96913
1 9.52934 27.6246 9.99152
1 11.1118 28.4126 10.7756
1 11.9055 27.6189 10.7756
1 11.8984 28.396 9.99722
1 11.0963 27.605 9.98793
1 12.6992 28.4126 10.7756
1 13.4929 27.6189 10.7756
1 13.4993 28.3962 9.97915
1 12.7127 27.5889 9.98265
1 14.2866 28.4126 10.7756
1 15.0803 27.6189 10.7756
1 15.0875 28.4218 9.95521
1 14.2823 27.6029 9.97009
1 15.874 28.4126 10.7756
1 16.6677 27.6189 10.7756
1 16.6762 28.3887 9.97093
1 15.9027 27.6188 9.96058
1 17.4614 28.4126 10.7756
1 18.2551 27.6189 10.7756
1 18.2447 28.3741 9.97562
1 17.4425 27.601 9.99873
1 19.0488 28.4126 10.7756
1 19.8425 27.6189 10.7756
1 19.8375 28.3716 9.96578
1 19.0484 27.6006 9.98491
1 20.6362 28.4126 10.7756
1 21.4299 27.6189 10.7756
1 21.4126 28.4234 9.99566
1 20.6401 27.5927 9.96623
1 22.2236 28.4126 10.7756
1 23.0173 27.6189 10.7756
1 23.0178 28.4034 9.97291
1 22.2071 27.6062 9.98481
1 23.811 28.4126 10.7756
1 24.6047 27.6189 10.7756
1 24.5811 28.4043 9.96305
1 23.8185 27.6061 9.98916
1 25.3984 28.4126 10.7756
1 26.1921 27.6189 10.7756
1 26.1635 28.3973 9.9755
1 25.3929 27.6146 9.96901
1 26.9858 28.4126 10.7756
1 27.7795 27.6189 10.7756
1 27.7791 28.3804 9.97492
1 26.9794 27.6484 9.96152
1 28.5732 28.4126 10.7756
1 29.3669 27.6189 10.7756
1 29.3104 28.3909 9.94679
1 28.56 27.6154 9.96391
1 30 26.8252 10.7756
1 0.793701 26.0315 10.7756
1 0.80133 26.825 9.95598
1 0.0544784 26.0413 9.92935
1 1.5874 26.8252 10.7756
1 2.3811 26.0315 10.7756
1 2.40323 26.824 9.97729
1 1.60495 26.0127 9.9995
1 3.1748 26.8252 10.7756
1 3.9685 26.0315 10.7756
1 3.96635 26.8105 10.0086
1 3.18433 26.0332 9.97573
1 4.7622 26.8252 10.7756
1 5.5559 26.0315 10.7756
1 5.5233 26.8142 9.97606
1 4.7545 26.0313 9.98502
1 6.3496 26.8252 10.7756
1 7.1433 26.0315 10.7756
1 7.157 26.8263 10.0181
1 6.35856 26.0452 9.99575
1 7.93701 26.8252 10.7756
1 8.73071 26.0315 10.7756
1 8.74923 26.8114 9.99698
1 7.94451 26.0244 10.0084
1 9.52441 26.8252 10.7756
1 10.3181 26.0315 10.7756
1 10.2949 26.8136 9.99088
1 9.53162 26.0044 9.97834
1 11.1118 26.8252 10.7756
1 11.9055 26.0315 10.7756
1 11.9207 26.8426 9.97912
1 11.1211 26.013 9.99107
1 12.6992 26.8252 10.7756
1 13.4929 26.0315 10.7756
1 13.4988 26.8166 9.97945
1 12.6801 26.019 9.9983
1 14.2866 26.8252 10.7756
1 15.0803 26.0315 10.7756
1 15.0785 26.8294 9.97644
1 14.2987 26.0272 9.99087
1 15.874 26.8252 10.7756
1 16.6677 26.0315 10.7756
1 16.6593 26.8172 9.97595
1 15.8411 26.0166 9.96651
1 17.4614 26.8252 10.7756
1 18.2551 26.0315 10.7756
1 18.2668 26.804 9.97527
1 17.4512 26.0453 10.013
1 19.0488 26.8252 10.7756
1 19.8425 26.0315 10.7756
1 19.8269 26.8184 9.98827
1 19.0426 26.0193 9.99404
1 20.6362 26.8252 10.7756
1 21.4299 26.0315 10.7756
1 21.4119 26.8283 10.0142
1 20.636 26.0407 9.97931
1 22.2236 26.8252 10.7756
1 23.0173 26.0315 10.7756
1 23.0202 26.839 9.98603
1 22.2201 26.0301 9.98593
1 23.811 26.8252 10.7756
1 24.6047 26.0315 10.7756
1 24.581 26.8252 9.96607
1 23.832 26.0125 9.97714
1 25.3984 26.8252 10.7756
1 26.1921 26.0315 10.7756
1 26.1917 26.8437 9.96427
1 25.3952 26.0505 9.97925
1 26.9858 26.8252 10.7756
1 27.7795 26.0315 10.7756
1 27.7499 26.8419 9.97175
1 26.9702 26.0358 9.99901
1 28.5732 26.8252 10.7756
1 29.3669 26.0315 10.7756
1 29.2866 26.8158 9.94233
1 28.5338 26.0025 9.98038
1 30 25.2378 10.7756
1 0.793701 24.4441 10.7756
1 0.818621 25.2291 9.96863
1 0.0768052 24.4183 9.93487
1 1.5874 25.2378 10.7756
1 2.3811 24.4441 10.7756
1 2.37766 25.2278 9.99444
1 1.61508 24.4216 9.97797
1 3.1748 25.2378 10.7756
1 3.9685 24.4441 10.7756
1 3.98147 25.228 9.97343
1 3.17354 24.4483 9.99393
1 4.7622 25.2378 10.7756
1 5.5559 24.4441 10.7756
1 5.55693 25.2107 9.99032
1 4.78001 24.4216 9.99467
1 6.3496 25.2378 10.7756
1 7.1433 24.4441 10.7756
1 7.13609 25.217 9.98516
1 6.36041 24.443 9.97554
1 7.93701 25.2378 10.7756
1 8.73071 24.4441 10.7756
1 8.72137 25.2075 9.97028
1 7.92832 24.4586 9.97715
1 9.52441 25.2378 10.7756
1 10.3181 24.4441 10.7756
1 10.3185 25.2463 9.99567
1 9.51035 24.4442 9.98464
1 11.1118 25.2378 10.7756
1 11.9055 24.4441 10.7756
1 11.9083 25.2167 9.96217
1 11.0961 24.4269 9.99516
1 12.6992 25.2378 10.7756
1 13.4929 24.4441 10.7756
1 13.4863 25.247 9.98325
1 12.6924 24.4377 9.97243
1 14.2866 25.2378 10.7756
1 15.0803 24.4441 10.7756
1 15.0896 25.2169 9.97573
1 14.2941 24.4419 9.97882
1 15.874 25.2378 10.7756
1 16.6677 24.4441 10.7756
1 16.6585 25.2475 9.98004
1 15.8901 24.4408 9.97387
1 17.4614 25.2378 10.7756
1 18.2551 24.4441 10.7756
1 18.2582 25.2371 9.98379
1 17.4586 24.4428 9.97274
1 19.0488 25.2378 10.7756
1 19.8425 24.4441 10.7756
1 19.8517 25.2318 10.0199
1 19.0303 24.4336 9.97951
1 20.6362 25.2378 10.7756
1 21.4299 24.4441 10.7756
1 21.4061 25.2164 9.98008
1 20.6473 24.4167 10.0058
1 22.2236 25.2378 10.7756
1 23.0173 24.4441 10.7756
1 23.0347 25.2338 9.98634
1 22.2247 24.4506 9.98388
1 23.811 25.2378 10.7756
1 24.6047 24.4441 10.7756
1 24.5941 25.2535 9.97462
1 23.8201 24.4442 10.0022
1 25.3984 25.2378 10.7756
1 26.1921 24.4441 10.7756
1 26.1766 25.2658 9.99256
1 25.3907 24.4663 9.96983
1 26.9858 25.2378 10.7756
1 27.7795 24.4441 10.7756
1 27.7459 25.2291 9.99345
1 26.9628 24.4489 10.0004
1 28.5732 25.2378 10.7756
1 29.3669 24.4441 10.7756
1 29.3074 25.2258 9.95453
1 28.5342 24.4507 9.97075
1 30 23.6504 10.7756
1 0.793701 22.8567 10.7756
1 0.815154 23.6483 9.96913
1 0.0507959 22.8601 9.94802
1 1.5874 23.6504 10.7756
1 2.3811 22.8567 10.7756
1 2.39259 23.6469 9.96881
1 1.59239 22.8584 9.9738
1 3.1748 23.6504 10.7756
1 3.9685 22.8567 10.7756
1 3.96285 23.6512 9.99173
1 3.17526 22.8564 9.96932
1 4.7622 23.6504 10.7756
1 5.5559 22.8567 10.7756
1 5.57911 23.6588 9.9711
1 4.76727 22.8744 9.96222
1 6.3496 23.6504 10.7756
1 7.1433 22.8567 10.7756
1 7.13629 23.6597 9.95462
1 6.35038 22.8509 10.0001
1 7.93701 23.6504 10.7756
1 8.73071 22.8567 10.7756
1 8.73841 23.6666 10.009
1 7.91984 22.8671 9.98134
1 9.52441 23.6504 10.7756
1 10.3181 22.8567 10.7756
1 10.2899 23.6438 9.98775
1 9.51662 22.8326 10.008
1 11.1118 23.6504 10.7756
1 11.9055 22.8567 10.7756
1 11.8933 23.6304 9.99002
1 11.1136 22.8704 9.97477
1 12.6992 23.6504 10.7756
1 13.4929 22.8567 10.7756
1 13.5014 23.6451 10.0039
1 12.6909 22.852 9.96108
1 14.2866 23.6504 10.7756
1 15.0803 22.8567 10.7756
1 15.0819 23.6628 9.97618
1 14.2988 22.8461 9.98095
1 15.874 23.6504 10.7756
1 16.6677 22.8567 10.7756
1 16.6569 23.6161 9.9832
1 15.8686 22.8501 9.96103
1 17.4614 23.6504 10.7756
1 18.2551 22.8567 10.7756
1 18.2598 23.6413 9.98279
1 17.4777 22.852 9.99238
1 19.0488 23.6504 10.7756
1 19.8425 22.8567 10.7756
1 19.8428 23.6396 10.0054
1 19.0495 22.8625 9.98935
1 20.6362 23.6504 10.7756
1 21.4299 22.8567 10.7756
1 21.4397 23.6406 9.99222
1 20.6343 22.8522 9.97713
1 22.2236 23.6504 10.7756
1 23.0173 22.8567 10.7756
1 23.0151 23.6445 9.97995
1 22.1984 22.8567 9.98343
1 23.811 23.6504 10.7756
1 24.6047 22.8567 10.7756
1 24.6154 23.6429 9.98294
1 23.816 22.861 9.98609
1 25.3984 23.6504 10.7756
1 26.1921 22.8567 10.7756
1 26.1944 23.6566 9.99836
1 25.3771 22.8585 10.0025
1 26.9858 23.6504 10.7756
1 27.7795 22.8567 10.7756
1 27.7699 23.671 10.0086
1 26.9789 22.8461 9.98866
1 28.5732 23.6504 10.7756
1 29.3669 22.8567 10.7756
1 29.2858 23.6457 9.95384
1 28.5258 22.8864 9.98592
1 30 22.063 10.7756
1 0.793701 21.2693 10.7756
1 0.790484 22.0455 9.98011
1 0.0640163 21.2605 9.94666
1 1.5874 22.063 10.7756
1 2.3811 21.2693 10.7756
1 2.3632 22.0663 9.98965
1 1.59331 21.254 9.9586
1 3.1748 22.063 10.7756
1 3.9685 21.2693 10.7756
1 3.98079 22.0743 9.96092
1 3.20381 21.2597 10.0056
1 4.7622 22.063 10.7756
1 5.5559 21.2693 10.7756
1 5.57668 22.056 9.96394
1 4.78326 21.2327 9.97557
1 6.3496 22.063 10.7756
1 7.1433 21.2693 10.7756
1 7.13527 22.0424 9.99676
1 6.34694 21.2746 9.97242
1 7.93701 22.063 10.7756
1 8.73071 21.2693 10.7756
1 8.71136 22.0556 10.0148
1 7.92017 21.2471 10.0175
1 9.52441 22.063 10.7756
1 10.3181 21.2693 10.7756
1 10.3311 22.043 9.98901
1 9.52904 21.271 9.97282
1 11.1118 22.063 10.7756
1 11.9055 21.2693 10.7756
1 11.9004 22.1059 9.98426
1 11.1173 21.269 9.96855
1 12.6992 22.063 10.7756
1 13.4929 21.2693 10.7756
1 13.491 22.0746 9.96242
1 12.7107 21.2921 9.98756
1 14.2866 22.063 10.7756
1 15.0803 21.2693 10.7756
1 15.096 22.0474 9.98876
1 14.2829 21.2905 9.96954
1 15.874 22.063 10.7756
1 16.6677 21.2693 10.7756
1 16.6776 22.0619 9.98253
1 15.8617 21.2486 9.98577
1 17.4614 22.063 10.7756
1 18.2551 21.2693 10.7756
1 18.259 22.0699 9.98402
1 17.4844 21.2701 9.9871
1 19.0488 22.063 10.7756
1 19.8425 21.2693 10.7756
1 19.8233 22.0613 9.98675
1 19.0428 21.2772 9.98681
1 20.6362 22.063 10.7756
1 21.4299 21.2693 10.7756
1 21.423 22.0913 10.0003
1 20.6225 21.279 9.97085
1 22.2236 22.063 10.7756
1 23.0173 21.2693 10.7756
1 23.0107 22.0676 10.0031
1 22.1997 21.2794 9.974
1 23.811 22.063 10.7756
1 24.6047 21.2693 10.7756
1 24.5903 22.0543 9.96976
1 23.8238 21.257 9.95878
1 25.3984 22.063 10.7756
1 26.1921 21.2693 10.7756
1 26.1847 22.0841 9.98067
1 25.4049 21.2627 9.98707
1 26.9858 22.063 10.7756
1 27.7795 21.2693 10.7756
1 27.7562 22.0775 9.96787
1 26.9801 21.2779 10.0129
1 28.5732 22.063 10.7756
1 29.3669 21.2693 10.7756
1 29.2801 22.0785 9.95886
1 28.5247 21.2402 9.97295
1 30 20.4756 10.7756
1 0.793701 19.6819 10.7756
1 0.814475 20.4784 9.98757
1 0.047798 19.6703 9.9697
1 1.5874 20.4756 10.7756
1 2.3811 19.6819 10.7756
1 2.41286 20.4817 9.99833
1 1.59172 19.6909 9.9744
1 3.1748 20.4756 10.7756
1 3.9685 19.6819 10.7756
1 3.97073 20.4849 10.0033
1 3.17633 19.6874 9.9712
1 4.7622 20.4756 10.7756
1 5.5559 19.6819 10.7756
1 5.55003 20.4619 9.97888
1 4.7595 19.6889 9.96152
1 6.3496 20.4756 10.7756
1 7.1433 19.6819 10.7756
1 7.12366 20.4556 9.97371
1 6.35543 19.6922 9.98589
1 7.93701 20.4756 10.7756
1 8.73071 19.6819 10.7756
1 8.71258 20.475 10.0002
1 7.92959 19.6768 9.95821
1 9.52441 20.4756 10.7756
1 10.3181 19.6819 10.7756
1 10.3156 20.4915 9.98124
1 9.52654 19.6905 9.99051
1 11.1118 20.4756 10.7756
1 11.9055 19.6819 10.7756
1 11.8851 20.4745 9.98401
1 11.0837 19.6926 9.96958
1 12.6992 20.4756 10.7756
1 13.4929 19.6819 10.7756
1 13.497 20.4883 9.97947
1 12.7003 19.6771 10.0004
1 14.2866 20.4756 10.7756
1 15.0803 19.6819 10.7756
1 15.0708 20.4777 9.97859
1 14.2728 19.6866 9.98223
1 15.874 20.4756 10.7756
1 16.6677 19.6819 10.7756
1 16.6747 20.4706 9.98623
1 15.8716 19.7012 9.96318
1 17.4614 20.4756 10.7756
1 18.2551 19.6819 10.7756
1 18.2728 20.4658 9.9791
1 17.478 19.675 10.0009
1 19.0488 20.4756 10.7756
1 19.8425 19.6819 10.7756
1 19.8333 20.4853 9.97463
1 19.0708 19.6707 9.97901
1 20.6362 20.4756 10.7756
1 21.4299 19.6819 10.7756
1 21.4315 20.4895 9.97573
1 20.628 19.6796 9.97704
1 22.2236 20.4756 10.7756
1 23.0173 19.6819 10.7756
1 23.0078 20.4759 9.99708
1 22.2106 19.6919 9.98208
1 23.811 20.4756 10.7756
1 24.6047 19.6819 10.7756
1 24.6016 20.4601 9.98634
1 23.7808 19.6993 9.99395
1 25.3984 20.4756 10.7756
1 26.1921 19.6819 10.7756
1 26.1936 20.4796 10.0123
1 25.3926 19.6575 9.98014
1 26.9858 20.4756 10.7756
1 27.7795 19.6819 10.7756
1 27.7612 20.4561 9.97692
1 26.9806 19.6782 9.97684
1 28.5732 20.4756 10.7756
1 29.3669 19.6819 10.7756
1 29.2709 20.4535 9.94637
1 28.526 19.6667 9.96945
1 30 18.8882 10.7756
1 0.793701 18.0945 10.7756
1 0.834884 18.8937 9.96418
1 0.0477476 18.0925 9.92864
1 1.5874 18.8882 10.7756
1 2.3811 18.0945 10.7756
1 2.38049 18.8922 9.99543
1 1.58393 18.1007 9.98351
1 3.1748 18.8882 10.7756
1 3.9685 18.0945 10.7756
1 3.96598 18.9124 9.98869
1 3.19309 18.1156 10.001
1 4.7622 18.8882 10.7756
1 5.5559 18.0945 10.7756
1 5.55565 18.9003 9.96148
1 4.75823 18.1169 9.98971
1 6.3496 18.8882 10.7756
1 7.1433 18.0945 10.7756
1 7.16802 18.8939 9.9627
1 6.35238 18.1068 9.94903
1 7.93701 18.8882 10.7756
1 8.73071 18.0945 10.7756
1 8.72378 18.8829 9.97465
1 7.95474 18.123 9.98106
1 9.52441 18.8882 10.7756
1 10.3181 18.0945 10.7756
1 10.3124 18.8706 9.99573
1 9.51847 18.1 9.98984
1 11.1118 18.8882 10.7756
1 11.9055 18.0945 10.7756
1 11.871 18.8709 9.97617
1 11.1187 18.08 9.97619
1 12.6992 18.8882 10.7756
1 13.4929 18.0945 10.7756
1 13.4952 18.8876 9.96873
1 12.6908 18.1163 9.97667
1 14.2866 18.8882 10.7756
1 15.0803 18.0945 10.7756
1 15.0707 18.9109 9.98345
1 14.2711 18.0952 9.98135
1 15.874 18.8882 10.7756
1 16.6677 18.0945 10.7756
1 16.6598 18.9027 9.98708
1 15.842 18.0887 9.9867
1 17.4614 18.8882 10.7756
1 18.2551 18.0945 10.7756
1 18.2495 18.8759 9.97754
1 17.4444 18.0969 9.97275
1 19.0488 18.8882 10.7756
1 19.8425 18.0945 10.7756
1 19.8507 18.8792 9.96767
1 19.0531 18.0782 9.97416
1 20.6362 18.8882 10.7756
1 21.4299 18.0945 10.7756
1 21.4254 18.8735 9.97068
1 20.6555 18.0785 9.98777
1 22.2236 18.8882 10.7756
1 23.0173 18.0945 10.7756
1 23.0039 18.9026 10.0029
1 22.2239 18.083 9.94754
1 23.811 18.8882 10.7756
1 24.6047 18.0945 10.7756
1 24.5939 18.9022 9.96697
1 23.8086 18.0927 9.98691
1 25.3984 18.8882 10.7756
1 26.1921 18.0945 10.7756
1 26.1857 18.8768 10.0377
1 25.3928 18.1004 9.97869
1 26.9858 18.8882 10.7756
1 27.7795 18.0945 10.7756
1 27.7939 18.8822 9.97235
1 26.9803 18.0996 9.98828
1 28.5732 18.8882 10.7756
1 29.3669 18.0945 10.7756
1 29.2962 18.8796 9.95804
1 28.5634 18.0762 9.96243
1 30 17.3008 10.7756
1 0.793701 16.5071 10.7756
1 0.796691 17.3048 9.98469
1 0.0712322 16.4881 9.94436
1 1.5874 17.3008 10.7756
1 2.3811 16.5071 10.7756
1 2.37375 17.2895 9.9885
1 1.57646 16.4858 9.97644
1 3.1748 17.3008 10.7756
1 3.9685 16.5071 10.7756
1 3.95849 17.3182 9.98977
1 3.18172 16.4773 9.98099
1 4.7622 17.3008 10.7756
1 5.5559 16.5071 10.7756
1 5.56909 17.3146 9.98696
1 4.76676 16.5161 9.97076
1 6.3496 17.3008 10.7756
1 7.1433 16.5071 10.7756
1 7.14417 17.3153 9.95791
1 6.37233 16.5173 9.95932
1 7.93701 17.3008 10.7756
1 8.73071 16.5071 10.7756
1 8.73201 17.2989 10.0018
1 7.96317 16.533 9.97572
1 9.52441 17.3008 10.7756
1 10.3181 16.5071 10.7756
1 10.295 17.2993 9.98155
1 9.49878 16.4983 10.005
1 11.1118 17.3008 10.7756
1 11.9055 16.5071 10.7756
1 11.9168 17.3141 9.97129
1 11.128 16.5232 9.96826
1 12.6992 17.3008 10.7756
1 13.4929 16.5071 10.7756
1 13.5074 17.2978 9.96267
1 12.7043 16.5172 9.99286
1 14.2866 17.3008 10.7756
1 15.0803 16.5071 10.7756
1 15.0673 17.3202 9.98985
1 14.287 16.502 9.96983
1 15.874 17.3008 10.7756
1 16.6677 16.5071 10.7756
1 16.6493 17.2917 9.9855
1 15.8684 16.5165 10.001
1 17.4614 17.3008 10.7756
1 18.2551 16.5071 10.7756
1 18.2444 17.2804 10.0164
1 17.4581 16.5098 9.98857
1 19.0488 17.3008 10.7756
1 19.8425 16.5071 10.7756
1 19.8553 17.2706 9.98329
1 19.0342 16.4978 9.99464
1 20.6362 17.3008 10.7756
1 21.4299 16.5071 10.7756
1 21.4363 17.3057 9.96606
1 20.6433 16.5022 9.99343
1 22.2236 17.3008 10.7756
1 23.0173 16.5071 10.7756
1 23.0103 17.3039 9.96063
1 22.2162 16.5244 9.97956
1 23.811 17.3008 10.7756
1 24.6047 16.5071 10.7756
1 24.5827 17.3165 10.0069
1 23.8104 16.5259 9.99379
1 25.3984 17.3008 10.7756
1 26.1921 16.5071 10.7756
1 26.2082 17.3076 9.98519
1 25.4178 16.5192 9.98112
1 26.9858 17.3008 10.7756
1 27.7795 16.5071 10.7756
1 27.7754 17.3 9.97315
1 26.9863 16.5224 9.97345
1 28.5732 17.3008 10.7756
1 29.3669 16.5071 10.7756
1 29.3129 17.3233 9.9404
1 28.5404 16.5278 9.98374
1 30 15.7134 10.7756
1 0.793701 14.9197 10.7756
1 0.810592 15.7038 9.97469
1 0.0634431 14.9027 9.97517
1 1.5874 15.7134 10.7756
1 2.3811 14.9197 10.7756
1 2.39636 15.7174 9.99452
1 1.59776 14.9165 9.98157
1 3.1748 15.7134 10.7756
1 3.9685 14.9197 10.7756
1 3.97431 15.7243 10.0105
1 3.18227 14.9105 9.99964
1 4.7622 15.7134 10.7756
1 5.5559 14.9197 10.7756
1 5.58087 15.7023 10.0025
1 4.77739 14.9242 9.98582
1 6.3496 15.7134 10.7756
1 7.1433 14.9197 10.7756
1 7.15939 15.7217 9.96815
1 6.37214 14.923 9.96625
1 7.93701 15.7134 10.7756
1 8.73071 14.9197 10.7756
1 8.69002 15.7034 9.99859
1 7.96972 14.9256 9.98146
1 9.52441 15.7134 10.7756
1 10.3181 14.9197 10.7756
1 10.331 15.7117 10.0124
1 9.50134 14.9217 9.98737
1 11.1118 15.7134 10.7756
1 11.9055 14.9197 10.7756
1 11.902 15.7319 10.0043
1 11.1267 14.9152 10.0116
1 12.6992 15.7134 10.7756
1 13.4929 14.9197 10.7756
1 13.5029 15.702 9.96741
1 12.7129 14.9146 10.0046
1 14.2866 15.7134 10.7756
1 15.0803 14.9197 10.7756
1 15.0921 15.7131 9.99064
1 14.2964 14.8977 9.98261
1 15.874 15.7134 10.7756
1 16.6677 14.9197 10.7756
1 16.6851 15.7288 10.0129
1 15.8721 14.8979 9.98015
1 17.4614 15.7134 10.7756
1 18.2551 14.9197 10.7756
1 18.2215 15.7213 9.97633
1 17.4617 14.9107 9.99945
1 19.0488 15.7134 10.7756
1 19.8425 14.9197 10.7756
1 19.8499 15.7181 10.0012
1 19.0331 14.9206 10.0035
1 20.6362 15.7134 10.7756
1 21.4299 14.9197 10.7756
1 21.4296 15.7069 9.9773
1 20.6437 14.9289 9.97601
1 22.2236 15.7134 10.7756
1 23.0173 14.9197 10.7756
1 23.0121 15.7159 9.99827
1 22.2095 14.9131 9.98072
1 23.811 15.7134 10.7756
1 24.6047 14.9197 10.7756
1 24.6105 15.7374 9.95824
1 23.805 14.9035 9.97976
1 25.3984 15.7134 10.7756
1 26.1921 14.9197 10.7756
1 26.1976 15.715 9.96839
1 25.3888 14.9135 9.97585
1 26.9858 15.7134 10.7756
1 27.7795 14.9197 10.7756
1 27.7477 15.705 9.9831
1 26.9783 14.9293 10.0178
1 28.5732 15.7134 10.7756
1 29.3669 14.9197 10.7756
1 29.2995 15.7058 9.93576
1 28.5459 14.9016 9.98857
1 30 14.126 10.7756
1 0.793701 13.3323 10.7756
1 0.809185 14.1424 9.98398
1 0.06969 13.3178 9.9488
1 1.5874 14.126 10.7756
1 2.3811 13.3323 10.7756
1 2.40716 14.1286 9.9857
1 1.59755 13.3679 9.98081
1 3.1748 14.126 10.7756
1 3.9685 13.3323 10.7756
1 3.95855 14.1241 9.96897
1 3.18101 13.3492 9.97096
1 4.7622 14.126 10.7756
1 5.5559 13.3323 10.7756
1 5.56219 14.1164 9.96497
1 4.76994 13.3478 9.98091
1 6.3496 14.126 10.7756
1 7.1433 13.3323 10.7756
1 7.13357 14.1231 9.97393
1 6.37448 13.3359 9.97036
1 7.93701 14.126 10.7756
1 8.73071 13.3323 10.7756
1 8.72514 14.1379 9.95398
1 7.96015 13.3472 9.9965
1 9.52441 14.126 10.7756
1 10.3181 13.3323 10.7756
1 10.3265 14.106 9.99666
1 9.50872 13.3456 9.96089
1 11.1118 14.126 10.7756
1 11.9055 13.3323 10.7756
1 11.9062 14.1173 9.97888
1 11.1327 13.3023 9.98987
1 12.6992 14.126 10.7756
1 13.4929 13.3323 10.7756
1 13.4877 14.1347 9.96583
1 12.6883 13.3553 9.95446
1 14.2866 14.126 10.7756
1 15.0803 13.3323 10.7756
1 15.1002 14.1273 9.99215
1 14.2777 13.3248 9.99206
1 15.874 14.126 10.7756
1 16.6677 13.3323 10.7756
1 16.6705 14.1379 10.0045
1 15.8703 13.3496 9.98567
1 17.4614 14.126 10.7756
1 18.2551 13.3323 10.7756
1 18.285 14.1156 9.98471
1 17.4742 13.3324 9.98318
1 19.0488 14.126 10.7756
1 19.8425 13.3323 10.7756
1 19.8196 14.1281 10.0009
1 19.0498 13.343 9.96996
1 20.6362 14.126 10.7756
1 21.4299 13.3323 10.7756
1 21.4319 14.1466 9.95926
1 20.6376 13.3365 9.99889
1 22.2236 14.126 10.7756
1 23.0173 13.3323 10.7756
1 23.0175 14.1455 9.96524
1 22.2181 13.352 9.96312
1 23.811 14.126 10.7756
1 24.6047 13.3323 10.7756
1 24.6157 14.0859 9.99582
1 23.7975 13.3638 9.98699
1 25.3984 14.126 10.7756
1 26.1921 13.3323 10.7756
1 26.1829 14.1254 9.98892
1 25.3921 13.3409 9.98308
1 26.9858 14.126 10.7756
1 27.7795 13.3323 10.7756
1 27.7479 14.1249 9.97496
1 26.9911 13.3391 9.9625
1 28.5732 14.126 10.7756
1 29.3669 13.3323 10.7756
1 29.2869 14.1221 9.93834
1 28.5546 13.3293 9.97876
1 30 12.5386 10.7756
1 0.793701 11.7449 10.7756
1 0.809467 12.5462 9.98839
1 0.0307964 11.7563 9.97364
1 1.5874 12.5386 10.7756
1 2.3811 11.7449 10.7756
1 2.38561 12.5489 9.95057
1 1.55758 11.762 9.96896
1 3.1748 12.5386 10.7756
1 3.9685 11.7449 10.7756
1 3.98495 12.5512 9.98852
1 3.19103 11.774 10.0093
1 4.7622 12.5386 10.7756
1 5.5559 11.7449 10.7756
1 5.56528 12.5533 9.98595
1 4.7704 11.7571 9.99106
1 6.3496 12.5386 10.7756
1 7.1433 11.7449 10.7756
1 7.1444 12.5483 9.98142
1 6.34351 11.7633 9.9717
1 7.93701 12.5386 10.7756
1 8.73071 11.7449 10.7756
1 8.71606 12.52 9.95608
1 7.91895 11.7672 10.0066
1 9.52441 12.5386 10.7756
1 10.3181 11.7449 10.7756
1 10.2861 12.5591 9.9823
1 9.53697 11.7508 9.96938
1 11.1118 12.5386 10.7756
1 11.9055 11.7449 10.7756
1 11.9076 12.511 10.001
1 11.1014 11.7459 10.0085
1 12.6992 12.5386 10.7756
1 13.4929 11.7449 10.7756
1 13.5108 12.5424 9.98629
1 12.7047 11.7156 9.99031
1 14.2866 12.5386 10.7756
1 15.0803 11.7449 10.7756
1 15.0783 12.5354 9.99959
1 14.2896 11.7576 9.99844
1 15.874 12.5386 10.7756
1 16.6677 11.7449 10.7756
1 16.6411 12.5395 9.98002
1 15.8897 11.7433 9.98765
1 17.4614 12.5386 10.7756
1 18.2551 11.7449 10.7756
1 18.2744 12.5366 9.97842
1 17.4611 11.7484 9.99254
1 19.0488 12.5386 10.7756
1 19.8425 11.7449 10.7756
1 19.8517 12.5517 9.98557
1 19.0442 11.7312 9.97019
1 20.6362 12.5386 10.7756
1 21.4299 11.7449 10.7756
1 21.4123 12.5504 10.009
1 20.6217 11.7649 9.98814
1 22.2236 12.5386 10.7756
1 23.0173 11.7449 10.7756
1 22.9939 12.524 9.99597
1 22.1992 11.7261 10.0061
1 23.811 12.5386 10.7756
1 24.6047 11.7449 10.7756
1 24.5867 12.5561 9.98734
1 23.7903 11.7653 9.99004
1 25.3984 12.5386 10.7756
1 26.1921 11.7449 10.7756
1 26.1525 12.5368 9.98681
1 25.3697 11.75 10.0089
1 26.9858 12.5386 10.7756
1 27.7795 11.7449 10.7756
1 27.7596 12.5462 9.97434
1 26.9763 11.7326 9.9794
1 28.5732 12.5386 10.7756
1 29.3669 11.7449 10.7756
1 29.2803 12.5385 9.95285
1 28.5349 11.7463 9.97581
1 30 10.9512 10.7756
1 0.793701 10.1575 10.7756
1 0.791424 10.9556 9.96841
1 0.041294 10.1562 9.96877
1 1.5874 10.9512 10.7756
1 2.3811 10.1575 10.7756
1 2.3863 10.9931 9.97656
1 1.5773 10.1486 9.96799
1 3.1748 10.9512 10.7756
1 3.9685 10.1575 10.7756
1 3.96424 10.9603 9.99839
1 3.15971 10.1664 9.98162
1 4.7622 10.9512 10.7756
1 5.5559 10.1575 10.7756
1 5.54885 10.9686 9.98396
1 4.75263 10.1732 9.96224
1 6.3496 10.9512 10.7756
1 7.1433 10.1575 10.7756
1 7.14613 10.9477 9.99068
1 6.35141 10.1419 9.99302
1 7.93701 10.9512 10.7756
1 8.73071 10.1575 10.7756
1 8.73466 10.9402 9.9853
1 7.93542 10.1729 9.97596
1 9.52441 10.9512 10.7756
1 10.3181 10.1575 10.7756
1 10.2973 10.9424 9.98339
1 9.51762 10.1742 9.95541
1 11.1118 10.9512 10.7756
1 11.9055 10.1575 10.7756
1 11.9079 10.9411 9.9826
1 11.1244 10.1308 9.98473
1 12.6992 10.9512 10.7756
1 13.4929 10.1575 10.7756
1 13.5041 10.9586 9.95324
1 12.7067 10.1594 9.97976
1 14.2866 10.9512 10.7756
1 15.0803 10.1575 10.7756
1 15.0781 10.9479 9.98951
1 14.2868 10.1461 9.98301
1 15.874 10.9512 10.7756
1 16.6677 10.1575 10.7756
1 16.6787 10.9412 9.98671
1 15.864 10.1405 9.96968
1 17.4614 10.9512 10.7756
1 18.2551 10.1575 10.7756
1 18.2597 10.9597 9.98316
1 17.4691 10.1515 9.96002
1 19.0488 10.9512 10.7756
1 19.8425 10.1575 10.7756
1 19.8407 10.9836 9.98994
1 19.0581 10.1673 9.96469
1 20.6362 10.9512 10.7756
1 21.4299 10.1575 10.7756
1 21.4124 10.9697 9.95781
1 20.6352 10.1459 9.97121
1 22.2236 10.9512 10.7756
1 23.0173 10.1575 10.7756
1 23.0121 10.9507 9.97236
1 22.1793 10.1569 9.98036
1 23.811 10.9512 10.7756
1 24.6047 10.1575 10.7756
1 24.5864 10.9423 9.97319
1 23.8041 10.1493 9.96972
1 25.3984 10.9512 10.7756
1 26.1921 10.1575 10.7756
1 26.176 10.9688 9.98596
1 25.4006 10.1565 9.97763
1 26.9858 10.9512 10.7756
1 27.7795 10.1575 10.7756
1 27.7554 10.9575 9.96497
1 26.9999 10.1427 9.98024
1 28.5732 10.9512 10.7756
1 29.3669 10.1575 10.7756
1 29.3203 10.9614 9.94303
1 28.5479 10.1864 9.97325
1 30 9.36379 10.7756
1 0.793701 8.57009 10.7756
1 0.801758 9.36032 9.97214
1 0.0388269 8.56226 9.94362
1 1.5874 9.36379 10.7756
1 2.3811 8.57009 10.7756
1 2.38902 9.35915 10.0073
1 1.62337 8.55845 9.99005
1 3.1748 9.36379 10.7756
1 3.9685 8.57009 10.7756
1 3.9726 9.36371 9.99164
1 3.1843 8.56695 9.96982
1 4.7622 9.36379 10.7756
1 5.5559 8.57009 10.7756
1 5.55814 9.35638 9.98795
1 4.77143 8.57296 9.98271
1 6.3496 9.36379 10.7756
1 7.1433 8.57009 10.7756
1 7.15388 9.37275 9.98973
1 6.34221 8.5659 9.97909
1 7.93701 9.36379 10.7756
1 8.73071 8.57009 10.7756
1 8.71624 9.3886 9.99428
1 7.95642 8.60069 9.99068
1 9.52441 9.36379 10.7756
1 10.3181 8.57009 10.7756
1 10.2928 9.38726 9.97288
1 9.51459 8.60127 9.97153
1 11.1118 9.36379 10.7756
1 11.9055 8.57009 10.7756
1 11.9018 9.37251 9.98727
1 11.104 8.57599 10.0061
1 12.6992 9.36379 10.7756
1 13.4929 8.57009 10.7756
1 13.4847 9.37429 9.98929
1 12.6922 8.59154 9.97941
1 14.2866 9.36379 10.7756
1 15.0803 8.57009 10.7756
1 15.0582 9.36946 10.0007
1 14.2895 8.58265 10.0092
1 15.874 9.36379 10.7756
1 16.6677 8.57009 10.7756
1 16.6724 9.37023 9.99214
1 15.8793 8.56876 10.0073
1 17.4614 9.36379 10.7756
1 18.2551 8.57009 10.7756
1 18.2472 9.34842 10.0142
1 17.4453 8.55751 9.99022
1 19.0488 9.36379 10.7756
1 19.8425 8.57009 10.7756
1 19.8178 9.39716 9.99917
1 19.0397 8.56519 9.97033
1 20.6362 9.36379 10.7756
1 21.4299 8.57009 10.7756
1 21.4286 9.36459 9.98164
1 20.6408 8.56551 9.98849
1 22.2236 9.36379 10.7756
1 23.0173 8.57009 10.7756
1 23.0072 9.37593 9.98153
1 22.2185 8.56659 9.97209
1 23.811 9.36379 10.7756
1 24.6047 8.57009 10.7756
1 24.6069 9.3623 10.0014
1 23.8086 8.55864 9.9806
1 25.3984 9.36379 10.7756
1 26.1921 8.57009 10.7756
1 26.1828 9.34679 9.99417
1 25.3998 8.55282 9.98014
1 26.9858 9.36379 10.7756
1 27.7795 8.57009 10.7756
1 27.7912 9.37075 9.99305
1 26.9947 8.57109 9.98981
1 28.5732 9.36379 10.7756
1 29.3669 8.57009 10.7756
1 29.2782 9.35061 9.9396
1 28.5544 8.56766 9.97107
1 30 7.77639 10.7756
1 0.793701 6.98268 10.7756
1 0.819219 7.78287 9.94047
1 0.070367 6.99219 9.94008
1 1.5874 7.77639 10.7756
1 2.3811 6.98268 10.7756
1 2.40791 7.76879 9.99135
1 1.59817 7.00013 9.9821
1 3.1748 7.77639 10.7756
1 3.9685 6.98268 10.7756
1 3.98413 7.77274 9.99006
1 3.18227 6.95047 9.995
1 4.7622 7.77639 10.7756
1 5.5559 6.98268 10.7756
1 5.5535 7.77222 9.98376
1 4.77022 6.99672 9.96929
1 6.3496 7.77639 10.7756
1 7.1433 6.98268 10.7756
1 7.16355 7.75691 9.9756
1 6.37591 6.99368 9.96494
1 7.93701 7.77639 10.7756
1 8.73071 6.98268 10.7756
1 8.70845 7.78042 9.95048
1 7.94374 6.98155 9.97527
1 9.52441 7.77639 10.7756
1 10.3181 6.98268 10.7756
1 10.2974 7.76913 9.99593
1 9.50927 6.97843 9.97644
1 11.1118 7.77639 10.7756
1 11.9055 6.98268 10.7756
1 11.9095 7.77822 9.97712
1 11.0901 6.98728 9.99717
1 12.6992 7.77639 10.7756
1 13.4929 6.98268 10.7756
1 13.4837 7.78365 9.98011
1 12.7127 6.97548 10.0157
1 14.2866 7.77639 10.7756
1 15.0803 6.98268 10.7756
1 15.0862 7.78176 9.98772
1 14.2777 6.98084 9.98197
1 15.874 7.77639 10.7756
1 16.6677 6.98268 10.7756
1 16.677 7.80127 9.97807
1 15.8579 6.9646 9.96912
1 17.4614 7.77639 10.7756
1 18.2551 6.98268 10.7756
1 18.2663 7.77868 9.99451
1 17.4382 7.00423 9.99059
1 19.0488 7.77639 10.7756
1 19.8425 6.98268 10.7756
1 19.8395 7.78287 9.98255
1 19.0353 6.97638 9.98853
1 20.6362 7.77639 10.7756
1 21.4299 6.98268 10.7756
1 21.4223 7.75357 9.98301
1 20.6184 6.97909 9.99953
1 22.2236 7.77639 10.7756
1 23.0173 6.98268 10.7756
1 23.0478 7.74932 9.95289
1 22.2207 6.97173 9.99354
1 23.811 7.77639 10.7756
1 24.6047 6.98268 10.7756
1 24.6314 7.7751 9.97751
1 23.8522 6.974 9.99339
1 25.3984 7.77639 10.7756
1 26.1921 6.98268 10.7756
1 26.206 7.76726 10.0035
1 25.3627 6.97536 9.97088
1 26.9858 7.77639 10.7756
1 27.7795 6.98268 10.7756
1 27.7685 7.78799 9.96662
1 26.9899 6.97187 9.97843
1 28.5732 7.77639 10.7756
1 29.3669 6.98268 10.7756
1 29.2874 7.77992 9.92403
1 28.5483 6.99272 9.95784
1 30 6.18898 10.7756
1 0.793701 5.39528 10.7756
1 0.809658 6.16806 9.98934
1 0.0621372 5.39813 9.95127
1 1.5874 6.18898 10.7756
1 2.3811 5.39528 10.7756
1 2.42205 6.19181 9.98484
1 1.6269 5.40647 9.97656
1 3.1748 6.18898 10.7756
1 3.9685 5.39528 10.7756
1 4.00346 6.17396 9.97808
1 3.18174 5.3837 9.99938
1 4.7622 6.18898 10.7756
1 5.5559 5.39528 10.7756
1 5.56417 6.19432 9.96903
1 4.78631 5.41615 9.94274
1 6.3496 6.18898 10.7756
1 7.1433 5.39528 10.7756
1 7.14715 6.1536 9.98405
1 6.35684 5.38329 9.96621
1 7.93701 6.18898 10.7756
1 8.73071 5.39528 10.7756
1 8.71891 6.18808 9.99928
1 7.93057 5.38983 9.98725