12976
Atoms. Timestep: 700000
1 0 7.10543e-15 15.1917
1 0.793701 29.2063 15.1917
1 0.809072 29.953 14.3679
1 0.0527596 29.1825 14.3646
1 1.5874 7.10543e-15 15.1917
1 2.3811 29.2063 15.1917
1 2.38584 29.9739 14.3646
1 1.58962 29.1709 14.3794
1 3.1748 7.10543e-15 15.1917
1 3.9685 29.2063 15.1917
1 3.96628 29.9452 14.3906
1 3.16743 29.1685 14.3738
1 4.7622 7.10543e-15 15.1917
1 5.5559 29.2063 15.1917
1 5.56228 29.9101 14.3716
1 4.7336 29.193 14.3808
1 6.3496 7.10543e-15 15.1917
1 7.1433 29.2063 15.1917
1 7.14626 29.9216 14.3471
1 6.36547 29.1619 14.382
1 7.93701 7.10543e-15 15.1917
1 8.73071 29.2063 15.1917
1 8.71202 29.9192 14.3464
1 7.94043 29.1556 14.3897
1 9.52441 7.10543e-15 15.1917
1 10.3181 29.2063 15.1917
1 10.2982 29.9211 14.3637
1 9.53123 29.16 14.3909
1 11.1118 7.10543e-15 15.1917
1 11.9055 29.2063 15.1917
1 11.8975 29.9318 14.3674
1 11.1321 29.1764 14.3982
1 12.6992 7.10543e-15 15.1917
1 13.4929 29.2063 15.1917
1 13.4937 29.9224 14.3741
1 12.6837 29.1685 14.3793
1 14.2866 7.10543e-15 15.1917
1 15.0803 29.2063 15.1917
1 15.1083 29.9236 14.3629
1 14.2918 29.1781 14.3843
1 15.874 7.10543e-15 15.1917
1 16.6677 29.2063 15.1917
1 16.6807 29.9277 14.3618
1 15.8719 29.1719 14.3849
1 17.4614 7.10543e-15 15.1917
1 18.2551 29.2063 15.1917
1 18.2363 29.9414 14.3584
1 17.4491 29.1783 14.3842
1 19.0488 7.10543e-15 15.1917
1 19.8425 29.2063 15.1917
1 19.8536 29.9191 14.3579
1 19.0541 29.1632 14.3861
1 20.6362 7.10543e-15 15.1917
1 21.4299 29.2063 15.1917
1 21.4195 29.9727 14.3599
1 20.6242 29.1733 14.3753
1 22.2236 7.10543e-15 15.1917
1 23.0173 29.2063 15.1917
1 22.9972 29.9256 14.3552
1 22.1717 29.1831 14.4213
1 23.811 7.10543e-15 15.1917
1 24.6047 29.2063 15.1917
1 24.6146 29.9624 14.3459
1 23.838 29.1539 14.3596
1 25.3984 7.10543e-15 15.1917
1 26.1921 29.2063 15.1917
1 26.1945 29.9452 14.371
1 25.388 29.175 14.3575
1 26.9858 7.10543e-15 15.1917
1 27.7795 29.2063 15.1917
1 27.7835 29.9299 14.3517
1 26.9649 29.1695 14.3874
1 28.5732 7.10543e-15 15.1917
1 29.3669 29.2063 15.1917
1 29.3054 29.9203 14.3491
1 28.5448 29.1643 14.38
1 0 28.4126 15.1917
1 0.793701 27.6189 15.1917
1 0.841881 28.39 14.3659
1 0.0844272 27.5819 14.366
1 1.5874 28.4126 15.1917
1 2.3811 27.6189 15.1917
1 2.36785 28.4158 14.375
1 1.59958 27.6111 14.3878
1 3.1748 28.4126 15.1917
1 3.9685 27.6189 15.1917
1 3.98189 28.3909 14.3989
1 3.19164 27.61 14.4012
1 4.7622 28.4126 15.1917
1 5.5559 27.6189 15.1917
1 5.57422 28.4053 14.3992
1 4.80701 27.6385 14.3898
1 6.3496 28.4126 15.1917
1 7.1433 27.6189 15.1917
1 7.16301 28.3694 14.3879
1 6.34172 27.6139 14.3857
1 7.93701 28.4126 15.1917
1 8.73071 27.6189 15.1917
1 8.72996 28.3913 14.3829
1 7.94309 27.5955 14.4212
1 9.52441 28.4126 15.1917
1 10.3181 27.6189 15.1917
1 10.3358 28.4187 14.3883
1 9.53937 27.5816 14.4122
1 11.1118 28.4126 15.1917
1 11.9055 27.6189 15.1917
1 11.909 28.3899 14.3918
1 11.1156 27.6324 14.4128
1 12.6992 28.4126 15.1917
1 13.4929 27.6189 15.1917
1 13.5 28.4006 14.3725
1 12.69 27.6125 14.4083
1 14.2866 28.4126 15.1917
1 15.0803 27.6189 15.1917
1 15.0773 28.4017 14.406
1 14.2824 27.6147 14.4166
1 15.874 28.4126 15.1917
1 16.6677 27.6189 15.1917
1 16.6859 28.3888 14.3736
1 15.9013 27.6116 14.3958
1 17.4614 28.4126 15.1917
1 18.2551 27.6189 15.1917
1 18.2593 28.4173 14.399
1 17.4684 27.6023 14.3912
1 19.0488 28.4126 15.1917
1 19.8425 27.6189 15.1917
1 19.8651 28.3985 14.3831
1 19.0371 27.6192 14.3793
1 20.6362 28.4126 15.1917
1 21.4299 27.6189 15.1917
1 21.4066 28.4164 14.3824
1 20.6514 27.5984 14.3989
1 22.2236 28.4126 15.1917
1 23.0173 27.6189 15.1917
1 23.0183 28.4074 14.3953
1 22.212 27.6279 14.3759
1 23.811 28.4126 15.1917
1 24.6047 27.6189 15.1917
1 24.5992 28.3835 14.3823
1 23.8054 27.6119 14.3886
1 25.3984 28.4126 15.1917
1 26.1921 27.6189 15.1917
1 26.1732 28.3992 14.3996
1 25.366 27.6251 14.4018
1 26.9858 28.4126 15.1917
1 27.7795 27.6189 15.1917
1 27.7481 28.4006 14.3769
1 26.9487 27.6031 14.4151
1 28.5732 28.4126 15.1917
1 29.3669 27.6189 15.1917
1 29.3357 28.3847 14.3623
1 28.5398 27.595 14.403
1 0 26.8252 15.1917
1 0.793701 26.0315 15.1917
1 0.826258 26.7986 14.373
1 0.0645053 26.0135 14.3589
1 1.5874 26.8252 15.1917
1 2.3811 26.0315 15.1917
1 2.4067 26.8218 14.3938
1 1.63731 26.043 14.4008
1 3.1748 26.8252 15.1917
1 3.9685 26.0315 15.1917
1 3.97543 26.8413 14.4061
1 3.18156 26.0365 14.3806
1 4.7622 26.8252 15.1917
1 5.5559 26.0315 15.1917
1 5.56645 26.8195 14.3685
1 4.774 26.0303 14.3925
1 6.3496 26.8252 15.1917
1 7.1433 26.0315 15.1917
1 7.13245 26.8395 14.3867
1 6.35587 26.0172 14.3848
1 7.93701 26.8252 15.1917
1 8.73071 26.0315 15.1917
1 8.71265 26.823 14.4188
1 7.93286 26.0441 14.388
1 9.52441 26.8252 15.1917
1 10.3181 26.0315 15.1917
1 10.3106 26.8276 14.4078
1 9.51063 26.046 14.4239
1 11.1118 26.8252 15.1917
1 11.9055 26.0315 15.1917
1 11.9024 26.8288 14.3862
1 11.1075 26.0344 14.4197
1 12.6992 26.8252 15.1917
1 13.4929 26.0315 15.1917
1 13.4744 26.8515 14.4069
1 12.7132 26.028 14.3759
1 14.2866 26.8252 15.1917
1 15.0803 26.0315 15.1917
1 15.0746 26.8383 14.4156
1 14.2916 26.0526 14.3842
1 15.874 26.8252 15.1917
1 16.6677 26.0315 15.1917
1 16.6847 26.8482 14.4078
1 15.9071 26.0375 14.3768
1 17.4614 26.8252 15.1917
1 18.2551 26.0315 15.1917
1 18.299 26.8337 14.3855
1 17.4706 26.0307 14.3886
1 19.0488 26.8252 15.1917
1 19.8425 26.0315 15.1917
1 19.8555 26.8326 14.4103
1 19.0573 26.0134 14.3979
1 20.6362 26.8252 15.1917
1 21.4299 26.0315 15.1917
1 21.4517 26.8154 14.3708
1 20.6133 26.0319 14.4049
1 22.2236 26.8252 15.1917
1 23.0173 26.0315 15.1917
1 23.0176 26.846 14.4145
1 22.2233 26.0329 14.4046
1 23.811 26.8252 15.1917
1 24.6047 26.0315 15.1917
1 24.6063 26.8202 14.3926
1 23.829 26.0434 14.4192
1 25.3984 26.8252 15.1917
1 26.1921 26.0315 15.1917
1 26.184 26.828 14.4089
1 25.392 26.0562 14.4028
1 26.9858 26.8252 15.1917
1 27.7795 26.0315 15.1917
1 27.7557 26.8266 14.408
1 26.99 26.0464 14.4161
1 28.5732 26.8252 15.1917
1 29.3669 26.0315 15.1917
1 29.2949 26.8071 14.3584
1 28.5495 26.0556 14.3993
1 0 25.2378 15.1917
1 0.793701 24.4441 15.1917
1 0.845774 25.239 14.4241
1 0.0523661 24.4272 14.3838
1 1.5874 25.2378 15.1917
1 2.3811 24.4441 15.1917
1 2.38351 25.2413 14.3932
1 1.61407 24.4363 14.3953
1 3.1748 25.2378 15.1917
1 3.9685 24.4441 15.1917
1 3.99731 25.2482 14.4244
1 3.19818 24.428 14.3945
1 4.7622 25.2378 15.1917
1 5.5559 24.4441 15.1917
1 5.53612 25.2228 14.3773
1 4.73952 24.4169 14.3933
1 6.3496 25.2378 15.1917
1 7.1433 24.4441 15.1917
1 7.17034 25.2572 14.4058
1 6.3547 24.4422 14.399
1 7.93701 25.2378 15.1917
1 8.73071 24.4441 15.1917
1 8.71074 25.2373 14.3945
1 7.94393 24.433 14.3793
1 9.52441 25.2378 15.1917
1 10.3181 24.4441 15.1917
1 10.3271 25.2339 14.3788
1 9.50656 24.4432 14.3789
1 11.1118 25.2378 15.1917
1 11.9055 24.4441 15.1917
1 11.9289 25.2394 14.3973
1 11.1377 24.4276 14.3883
1 12.6992 25.2378 15.1917
1 13.4929 24.4441 15.1917
1 13.497 25.2326 14.4093
1 12.7062 24.4191 14.3964
1 14.2866 25.2378 15.1917
1 15.0803 24.4441 15.1917
1 15.0993 25.2594 14.3882
1 14.3036 24.4723 14.3902
1 15.874 25.2378 15.1917
1 16.6677 24.4441 15.1917
1 16.6527 25.2562 14.3495
1 15.8704 24.4575 14.3824
1 17.4614 25.2378 15.1917
1 18.2551 24.4441 15.1917
1 18.2748 25.2292 14.4099
1 17.462 24.4232 14.3772
1 19.0488 25.2378 15.1917
1 19.8425 24.4441 15.1917
1 19.8387 25.2405 14.3929
1 19.0671 24.4581 14.3893
1 20.6362 25.2378 15.1917
1 21.4299 24.4441 15.1917
1 21.4277 25.2533 14.4048
1 20.6406 24.4519 14.3654
1 22.2236 25.2378 15.1917
1 23.0173 24.4441 15.1917
1 23.0045 25.2202 14.4218
1 22.2224 24.4525 14.3947
1 23.811 25.2378 15.1917
1 24.6047 24.4441 15.1917
1 24.6097 25.2417 14.4203
1 23.8101 24.4567 14.4003
1 25.3984 25.2378 15.1917
1 26.1921 24.4441 15.1917
1 26.1993 25.2706 14.3897
1 25.3976 24.4554 14.3889
1 26.9858 25.2378 15.1917
1 27.7795 24.4441 15.1917
1 27.7655 25.2375 14.4137
1 26.967 24.4569 14.3848
1 28.5732 25.2378 15.1917
1 29.3669 24.4441 15.1917
1 29.3089 25.2531 14.3756
1 28.5388 24.4438 14.3904
1 0 23.6504 15.1917
1 0.793701 22.8567 15.1917
1 0.840393 23.6365 14.3981
1 0.0736538 22.86 14.3713
1 1.5874 23.6504 15.1917
1 2.3811 22.8567 15.1917
1 2.40754 23.6663 14.419
1 1.65039 22.8682 14.3874
1 3.1748 23.6504 15.1917
1 3.9685 22.8567 15.1917
1 3.99267 23.62 14.3997
1 3.17939 22.8571 14.3843
1 4.7622 23.6504 15.1917
1 5.5559 22.8567 15.1917
1 5.5675 23.6422 14.4085
1 4.78599 22.8429 14.3795
1 6.3496 23.6504 15.1917
1 7.1433 22.8567 15.1917
1 7.13584 23.6378 14.3898
1 6.35742 22.8244 14.4189
1 7.93701 23.6504 15.1917
1 8.73071 22.8567 15.1917
1 8.74539 23.6452 14.4337
1 7.93915 22.8631 14.3923
1 9.52441 23.6504 15.1917
1 10.3181 22.8567 15.1917
1 10.3107 23.6602 14.3899
1 9.56242 22.8607 14.4163
1 11.1118 23.6504 15.1917
1 11.9055 22.8567 15.1917
1 11.9469 23.6529 14.3961
1 11.1483 22.8728 14.408
1 12.6992 23.6504 15.1917
1 13.4929 22.8567 15.1917
1 13.5292 23.654 14.399
1 12.6966 22.8445 14.4063
1 14.2866 23.6504 15.1917
1 15.0803 22.8567 15.1917
1 15.0998 23.6582 14.3982
1 14.3039 22.8436 14.3989
1 15.874 23.6504 15.1917
1 16.6677 22.8567 15.1917
1 16.6742 23.6411 14.3877
1 15.8819 22.8538 14.4033
1 17.4614 23.6504 15.1917
1 18.2551 22.8567 15.1917
1 18.2623 23.6507 14.3936
1 17.4655 22.8638 14.4005
1 19.0488 23.6504 15.1917
1 19.8425 22.8567 15.1917
1 19.8631 23.6491 14.3867
1 19.0282 22.8563 14.3968
1 20.6362 23.6504 15.1917
1 21.4299 22.8567 15.1917
1 21.4408 23.6451 14.3863
1 20.6406 22.87 14.3744
1 22.2236 23.6504 15.1917
1 23.0173 22.8567 15.1917
1 23.0231 23.6688 14.3842
1 22.2522 22.8753 14.3993
1 23.811 23.6504 15.1917
1 24.6047 22.8567 15.1917
1 24.5862 23.6184 14.3925
1 23.8122 22.8522 14.3943
1 25.3984 23.6504 15.1917
1 26.1921 22.8567 15.1917
1 26.1769 23.6685 14.411
1 25.3828 22.8465 14.4051
1 26.9858 23.6504 15.1917
1 27.7795 22.8567 15.1917
1 27.7537 23.6651 14.3888
1 26.9967 22.8478 14.4228
1 28.5732 23.6504 15.1917
1 29.3669 22.8567 15.1917
1 29.3137 23.6271 14.3734
1 28.5506 22.8815 14.4139
1 0 22.063 15.1917
1 0.793701 21.2693 15.1917
1 0.836974 22.0514 14.3845
1 0.0458537 21.2296 14.3789
1 1.5874 22.063 15.1917
1 2.3811 21.2693 15.1917
1 2.39556 22.0673 14.4299
1 1.60778 21.2431 14.374
1 3.1748 22.063 15.1917
1 3.9685 21.2693 15.1917
1 3.99207 22.0818 14.3978
1 3.19472 21.2752 14.4351
1 4.7622 22.063 15.1917
1 5.5559 21.2693 15.1917
1 5.57183 22.0535 14.404
1 4.75163 21.3 14.3989
1 6.3496 22.063 15.1917
1 7.1433 21.2693 15.1917
1 7.15756 22.0555 14.4142
1 6.35582 21.2883 14.4182
1 7.93701 22.063 15.1917
1 8.73071 21.2693 15.1917
1 8.74743 22.0888 14.4065
1 7.91936 21.2781 14.3769
1 9.52441 22.063 15.1917
1 10.3181 21.2693 15.1917
1 10.3085 22.0433 14.3992
1 9.50257 21.2461 14.4182
1 11.1118 22.063 15.1917
1 11.9055 21.2693 15.1917
1 11.9124 22.0581 14.4117
1 11.1051 21.2539 14.4221
1 12.6992 22.063 15.1917
1 13.4929 21.2693 15.1917
1 13.5133 22.0735 14.3981
1 12.6965 21.2698 14.4156
1 14.2866 22.063 15.1917
1 15.0803 21.2693 15.1917
1 15.1019 22.0387 14.3928
1 14.2926 21.2538 14.3755
1 15.874 22.063 15.1917
1 16.6677 21.2693 15.1917
1 16.6712 22.0625 14.3933
1 15.8913 21.2417 14.4163
1 17.4614 22.063 15.1917
1 18.2551 21.2693 15.1917
1 18.2507 22.0646 14.3961
1 17.4744 21.2685 14.3994
1 19.0488 22.063 15.1917
1 19.8425 21.2693 15.1917
1 19.8485 22.0717 14.3926
1 19.0615 21.2526 14.4132
1 20.6362 22.063 15.1917
1 21.4299 21.2693 15.1917
1 21.4225 22.0704 14.4112
1 20.6534 21.282 14.4062
1 22.2236 22.063 15.1917
1 23.0173 21.2693 15.1917
1 23.0198 22.0614 14.4004
1 22.2183 21.2446 14.4153
1 23.811 22.063 15.1917
1 24.6047 21.2693 15.1917
1 24.6063 22.067 14.4005
1 23.8048 21.2644 14.3837
1 25.3984 22.063 15.1917
1 26.1921 21.2693 15.1917
1 26.1826 22.0416 14.3787
1 25.4053 21.2748 14.3861
1 26.9858 22.063 15.1917
1 27.7795 21.2693 15.1917
1 27.7517 22.0554 14.3882
1 26.9777 21.2663 14.4032
1 28.5732 22.063 15.1917
1 29.3669 21.2693 15.1917
1 29.3084 22.0667 14.3469
1 28.5678 21.2501 14.4034
1 0 20.4756 15.1917
1 0.793701 19.6819 15.1917
1 0.835517 20.4703 14.4106
1 0.0584745 19.6823 14.3577
1 1.5874 20.4756 15.1917
1 2.3811 19.6819 15.1917
1 2.37479 20.4868 14.4125
1 1.61327 19.6902 14.3932
1 3.1748 20.4756 15.1917
1 3.9685 19.6819 15.1917
1 3.98686 20.4965 14.4041
1 3.17865 19.6906 14.4021
1 4.7622 20.4756 15.1917
1 5.5559 19.6819 15.1917
1 5.54808 20.4972 14.4215
1 4.77994 19.6791 14.4043
1 6.3496 20.4756 15.1917
1 7.1433 19.6819 15.1917
1 7.13466 20.4527 14.4088
1 6.35216 19.6692 14.404
1 7.93701 20.4756 15.1917
1 8.73071 19.6819 15.1917
1 8.72607 20.4887 14.4006
1 7.95977 19.6864 14.4055
1 9.52441 20.4756 15.1917
1 10.3181 19.6819 15.1917
1 10.3096 20.4722 14.4068
1 9.51284 19.6888 14.3794
1 11.1118 20.4756 15.1917
1 11.9055 19.6819 15.1917
1 11.9227 20.4858 14.3988
1 11.1218 19.693 14.3909
1 12.6992 20.4756 15.1917
1 13.4929 19.6819 15.1917
1 13.5029 20.4885 14.3837
1 12.7133 19.6692 14.3897
1 14.2866 20.4756 15.1917
1 15.0803 19.6819 15.1917
1 15.0915 20.4989 14.3876
1 14.2742 19.6892 14.3866
1 15.874 20.4756 15.1917
1 16.6677 19.6819 15.1917
1 16.671 20.4822 14.3897
1 15.8622 19.6761 14.4073
1 17.4614 20.4756 15.1917
1 18.2551 19.6819 15.1917
1 18.2397 20.4855 14.3864
1 17.4798 19.673 14.4182
1 19.0488 20.4756 15.1917
1 19.8425 19.6819 15.1917
1 19.8121 20.5037 14.4206
1 19.0266 19.6728 14.4005
1 20.6362 20.4756 15.1917
1 21.4299 19.6819 15.1917
1 21.4209 20.451 14.3962
1 20.626 19.6616 14.4189
1 22.2236 20.4756 15.1917
1 23.0173 19.6819 15.1917
1 23.0173 20.477 14.3707
1 22.2089 19.6638 14.3801
1 23.811 20.4756 15.1917
1 24.6047 19.6819 15.1917
1 24.6373 20.4605 14.4106
1 23.7936 19.6704 14.4185
1 25.3984 20.4756 15.1917
1 26.1921 19.6819 15.1917
1 26.1702 20.48 14.3977
1 25.3891 19.6942 14.4035
1 26.9858 20.4756 15.1917
1 27.7795 19.6819 15.1917
1 27.714 20.497 14.383
1 26.9783 19.6872 14.4016
1 28.5732 20.4756 15.1917
1 29.3669 19.6819 15.1917
1 29.3021 20.4675 14.3808
1 28.5368 19.6883 14.4125
1 0 18.8882 15.1917
1 0.793701 18.0945 15.1917
1 0.843037 18.8915 14.3919
1 0.046809 18.0848 14.3734
1 1.5874 18.8882 15.1917
1 2.3811 18.0945 15.1917
1 2.37822 18.9019 14.3937
1 1.60687 18.0868 14.4204
1 3.1748 18.8882 15.1917
1 3.9685 18.0945 15.1917
1 3.96158 18.8831 14.4097
1 3.1843 18.097 14.4111
1 4.7622 18.8882 15.1917
1 5.5559 18.0945 15.1917
1 5.55266 18.8875 14.4265
1 4.74531 18.1033 14.4178
1 6.3496 18.8882 15.1917
1 7.1433 18.0945 15.1917
1 7.1469 18.8931 14.4204
1 6.33463 18.0812 14.4008
1 7.93701 18.8882 15.1917
1 8.73071 18.0945 15.1917
1 8.75234 18.8686 14.4007
1 7.93284 18.0878 14.3749
1 9.52441 18.8882 15.1917
1 10.3181 18.0945 15.1917
1 10.337 18.8813 14.3781
1 9.53436 18.0903 14.4054
1 11.1118 18.8882 15.1917
1 11.9055 18.0945 15.1917
1 11.9265 18.8957 14.4016
1 11.1206 18.0921 14.3984
1 12.6992 18.8882 15.1917
1 13.4929 18.0945 15.1917
1 13.4911 18.8668 14.412
1 12.6939 18.0776 14.4029
1 14.2866 18.8882 15.1917
1 15.0803 18.0945 15.1917
1 15.0879 18.9001 14.4072
1 14.3179 18.0598 14.3687
1 15.874 18.8882 15.1917
1 16.6677 18.0945 15.1917
1 16.6697 18.8797 14.3932
1 15.8587 18.0893 14.4058
1 17.4614 18.8882 15.1917
1 18.2551 18.0945 15.1917
1 18.2632 18.8863 14.3762
1 17.451 18.0924 14.4019
1 19.0488 18.8882 15.1917
1 19.8425 18.0945 15.1917
1 19.8224 18.8991 14.3945
1 19.0188 18.0883 14.3748
1 20.6362 18.8882 15.1917
1 21.4299 18.0945 15.1917
1 21.4237 18.8823 14.4092
1 20.6191 18.1016 14.3856
1 22.2236 18.8882 15.1917
1 23.0173 18.0945 15.1917
1 23.013 18.857 14.3904
1 22.2197 18.0872 14.3916
1 23.811 18.8882 15.1917
1 24.6047 18.0945 15.1917
1 24.6202 18.8902 14.41
1 23.8333 18.1133 14.3977
1 25.3984 18.8882 15.1917
1 26.1921 18.0945 15.1917
1 26.1669 18.8738 14.3947
1 25.3692 18.0936 14.3925
1 26.9858 18.8882 15.1917
1 27.7795 18.0945 15.1917
1 27.7619 18.8889 14.3926
1 26.9857 18.0999 14.4036
1 28.5732 18.8882 15.1917
1 29.3669 18.0945 15.1917
1 29.2993 18.898 14.389
1 28.5387 18.0895 14.3889
1 0 17.3008 15.1917
1 0.793701 16.5071 15.1917
1 0.847718 17.2937 14.3788
1 0.056585 16.4931 14.3399
1 1.5874 17.3008 15.1917
1 2.3811 16.5071 15.1917
1 2.40166 17.2951 14.382
1 1.61501 16.5299 14.3798
1 3.1748 17.3008 15.1917
1 3.9685 16.5071 15.1917
1 3.96962 17.3046 14.3879
1 3.19022 16.5048 14.3788
1 4.7622 17.3008 15.1917
1 5.5559 16.5071 15.1917
1 5.54751 17.3264 14.3923
1 4.75564 16.5309 14.3903
1 6.3496 17.3008 15.1917
1 7.1433 16.5071 15.1917
1 7.12534 17.3206 14.4236
1 6.33748 16.5211 14.3912
1 7.93701 17.3008 15.1917
1 8.73071 16.5071 15.1917
1 8.74126 17.271 14.3798
1 7.95222 16.4987 14.4039
1 9.52441 17.3008 15.1917
1 10.3181 16.5071 15.1917
1 10.317 17.2838 14.3903
1 9.53435 16.4969 14.3981
1 11.1118 17.3008 15.1917
1 11.9055 16.5071 15.1917
1 11.9107 17.3016 14.4126
1 11.0934 16.5185 14.4174
1 12.6992 17.3008 15.1917
1 13.4929 16.5071 15.1917
1 13.485 17.2797 14.3682
1 12.6994 16.4688 14.3871
1 14.2866 17.3008 15.1917
1 15.0803 16.5071 15.1917
1 15.0822 17.2824 14.3936
1 14.2666 16.4991 14.4016
1 15.874 17.3008 15.1917
1 16.6677 16.5071 15.1917
1 16.6808 17.3066 14.409
1 15.8644 16.513 14.3956
1 17.4614 17.3008 15.1917
1 18.2551 16.5071 15.1917
1 18.2229 17.2895 14.3975
1 17.4449 16.4981 14.3957
1 19.0488 17.3008 15.1917
1 19.8425 16.5071 15.1917
1 19.8232 17.3126 14.3908
1 19.0554 16.5234 14.4161
1 20.6362 17.3008 15.1917
1 21.4299 16.5071 15.1917
1 21.4128 17.2823 14.4158
1 20.622 16.5016 14.3806
1 22.2236 17.3008 15.1917
1 23.0173 16.5071 15.1917
1 23.015 17.286 14.3796
1 22.2183 16.5111 14.4129
1 23.811 17.3008 15.1917
1 24.6047 16.5071 15.1917
1 24.5897 17.2823 14.4178
1 23.8173 16.5007 14.3965
1 25.3984 17.3008 15.1917
1 26.1921 16.5071 15.1917
1 26.1888 17.2939 14.3962
1 25.3855 16.491 14.3916
1 26.9858 17.3008 15.1917
1 27.7795 16.5071 15.1917
1 27.7584 17.2877 14.4031
1 26.9802 16.5058 14.3886
1 28.5732 17.3008 15.1917
1 29.3669 16.5071 15.1917
1 29.3198 17.3077 14.4034
1 28.5476 16.4775 14.3888
1 0 15.7134 15.1917
1 0.793701 14.9197 15.1917
1 0.819441 15.7199 14.3964
1 0.0696356 14.9214 14.3593
1 1.5874 15.7134 15.1917
1 2.3811 14.9197 15.1917
1 2.37236 15.7133 14.3914
1 1.61586 14.9343 14.3777
1 3.1748 15.7134 15.1917
1 3.9685 14.9197 15.1917
1 3.98459 15.7195 14.4199
1 3.18879 14.9619 14.4093
1 4.7622 15.7134 15.1917
1 5.5559 14.9197 15.1917
1 5.55785 15.7218 14.3914
1 4.78936 14.9097 14.3884
1 6.3496 15.7134 15.1917
1 7.1433 14.9197 15.1917
1 7.13622 15.7255 14.4103
1 6.35262 14.9345 14.412
1 7.93701 15.7134 15.1917
1 8.73071 14.9197 15.1917
1 8.72317 15.7188 14.4146
1 7.94211 14.9229 14.3905
1 9.52441 15.7134 15.1917
1 10.3181 14.9197 15.1917
1 10.3178 15.712 14.4133
1 9.52936 14.921 14.3858
1 11.1118 15.7134 15.1917
1 11.9055 14.9197 15.1917
1 11.9009 15.7225 14.419
1 11.1223 14.9113 14.3963
1 12.6992 15.7134 15.1917
1 13.4929 14.9197 15.1917
1 13.4717 15.6812 14.4115
1 12.7099 14.9103 14.3792
1 14.2866 15.7134 15.1917
1 15.0803 14.9197 15.1917
1 15.0574 15.698 14.4014
1 14.2856 14.8965 14.4185
1 15.874 15.7134 15.1917
1 16.6677 14.9197 15.1917
1 16.6611 15.6999 14.3995
1 15.8987 14.909 14.3924
1 17.4614 15.7134 15.1917
1 18.2551 14.9197 15.1917
1 18.2727 15.72 14.4002
1 17.4946 14.9326 14.4004
1 19.0488 15.7134 15.1917
1 19.8425 14.9197 15.1917
1 19.8443 15.7092 14.4081
1 19.0586 14.9219 14.3783
1 20.6362 15.7134 15.1917
1 21.4299 14.9197 15.1917
1 21.4304 15.7263 14.4026
1 20.6452 14.9219 14.3921
1 22.2236 15.7134 15.1917
1 23.0173 14.9197 15.1917
1 23.0177 15.7231 14.3783
1 22.2079 14.9333 14.3901
1 23.811 15.7134 15.1917
1 24.6047 14.9197 15.1917
1 24.6016 15.6951 14.4059
1 23.8262 14.9 14.3926
1 25.3984 15.7134 15.1917
1 26.1921 14.9197 15.1917
1 26.1887 15.6838 14.4019
1 25.3759 14.9124 14.4095
1 26.9858 15.7134 15.1917
1 27.7795 14.9197 15.1917
1 27.7868 15.7005 14.4102
1 26.9998 14.9158 14.3883
1 28.5732 15.7134 15.1917
1 29.3669 14.9197 15.1917
1 29.3142 15.7032 14.3569
1 28.5489 14.9172 14.4202
1 0 14.126 15.1917
1 0.793701 13.3323 15.1917
1 0.803773 14.1378 14.364
1 0.0621724 13.3256 14.3458
1 1.5874 14.126 15.1917
1 2.3811 13.3323 15.1917
1 2.38711 14.1302 14.3797
1 1.5963 13.3552 14.3899
1 3.1748 14.126 15.1917
1 3.9685 13.3323 15.1917
1 3.97986 14.1176 14.3895
1 3.19783 13.3466 14.3918
1 4.7622 14.126 15.1917
1 5.5559 13.3323 15.1917
1 5.57872 14.1104 14.4158
1 4.77801 13.3166 14.4033
1 6.3496 14.126 15.1917
1 7.1433 13.3323 15.1917
1 7.12992 14.1322 14.4162
1 6.34802 13.3623 14.3837
1 7.93701 14.126 15.1917
1 8.73071 13.3323 15.1917
1 8.74278 14.1222 14.3834
1 7.93177 13.3407 14.4189
1 9.52441 14.126 15.1917
1 10.3181 13.3323 15.1917
1 10.3107 14.1313 14.4002
1 9.53982 13.3083 14.3795
1 11.1118 14.126 15.1917
1 11.9055 13.3323 15.1917
1 11.9091 14.1265 14.4034
1 11.1036 13.3206 14.4058
1 12.6992 14.126 15.1917
1 13.4929 13.3323 15.1917
1 13.4937 14.096 14.41
1 12.694 13.3305 14.3854
1 14.2866 14.126 15.1917
1 15.0803 13.3323 15.1917
1 15.0927 14.1177 14.3944
1 14.3128 13.3371 14.3776
1 15.874 14.126 15.1917
1 16.6677 13.3323 15.1917
1 16.663 14.1462 14.4152
1 15.9083 13.3329 14.4206
1 17.4614 14.126 15.1917
1 18.2551 13.3323 15.1917
1 18.2674 14.1157 14.403
1 17.4603 13.3396 14.4187
1 19.0488 14.126 15.1917
1 19.8425 13.3323 15.1917
1 19.8422 14.1521 14.3808
1 19.0653 13.3368 14.3799
1 20.6362 14.126 15.1917
1 21.4299 13.3323 15.1917
1 21.4153 14.1125 14.3775
1 20.6406 13.3408 14.3859
1 22.2236 14.126 15.1917
1 23.0173 13.3323 15.1917
1 23.0259 14.1303 14.4004
1 22.2245 13.3163 14.4027
1 23.811 14.126 15.1917
1 24.6047 13.3323 15.1917
1 24.5926 14.1364 14.4058
1 23.8145 13.3575 14.3742
1 25.3984 14.126 15.1917
1 26.1921 13.3323 15.1917
1 26.2096 14.1185 14.3853
1 25.3924 13.3582 14.4051
1 26.9858 14.126 15.1917
1 27.7795 13.3323 15.1917
1 27.779 14.1141 14.4039
1 26.9624 13.3361 14.3951
1 28.5732 14.126 15.1917
1 29.3669 13.3323 15.1917
1 29.327 14.1277 14.3719
1 28.5529 13.3464 14.4072
1 0 12.5386 15.1917
1 0.793701 11.7449 15.1917
1 0.825774 12.5422 14.3702
1 0.0639571 11.7485 14.3767
1 1.5874 12.5386 15.1917
1 2.3811 11.7449 15.1917
1 2.39052 12.546 14.3958
1 1.59985 11.7247 14.3434
1 3.1748 12.5386 15.1917
1 3.9685 11.7449 15.1917
1 3.98246 12.5422 14.4071
1 3.21738 11.7589 14.393
1 4.7622 12.5386 15.1917
1 5.5559 11.7449 15.1917
1 5.55985 12.5357 14.4028
1 4.76902 11.7384 14.4036
1 6.3496 12.5386 15.1917
1 7.1433 11.7449 15.1917
1 7.13981 12.5555 14.3868
1 6.32614 11.7366 14.4016
1 7.93701 12.5386 15.1917
1 8.73071 11.7449 15.1917
1 8.71941 12.5161 14.411
1 7.93083 11.7404 14.3875
1 9.52441 12.5386 15.1917
1 10.3181 11.7449 15.1917
1 10.313 12.5101 14.3849
1 9.54838 11.7578 14.4259
1 11.1118 12.5386 15.1917
1 11.9055 11.7449 15.1917
1 11.9006 12.5245 14.4108
1 11.1145 11.7241 14.4139
1 12.6992 12.5386 15.1917
1 13.4929 11.7449 15.1917
1 13.4721 12.5404 14.3948
1 12.6987 11.7339 14.4078
1 14.2866 12.5386 15.1917
1 15.0803 11.7449 15.1917
1 15.0996 12.5494 14.4037
1 14.3085 11.7563 14.3728
1 15.874 12.5386 15.1917
1 16.6677 11.7449 15.1917
1 16.6797 12.5376 14.4108
1 15.893 11.7525 14.3961
1 17.4614 12.5386 15.1917
1 18.2551 11.7449 15.1917
1 18.2678 12.5511 14.3806
1 17.4802 11.7412 14.3789
1 19.0488 12.5386 15.1917
1 19.8425 11.7449 15.1917
1 19.8291 12.5482 14.3557
1 19.0545 11.7668 14.3936
1 20.6362 12.5386 15.1917
1 21.4299 11.7449 15.1917
1 21.4183 12.5369 14.3777
1 20.6249 11.7389 14.3897
1 22.2236 12.5386 15.1917
1 23.0173 11.7449 15.1917
1 23.0153 12.5357 14.4105
1 22.2293 11.7551 14.4147
1 23.811 12.5386 15.1917
1 24.6047 11.7449 15.1917
1 24.6209 12.5686 14.4228
1 23.8217 11.7684 14.4049
1 25.3984 12.5386 15.1917
1 26.1921 11.7449 15.1917
1 26.1911 12.5475 14.417
1 25.3682 11.7663 14.3869
1 26.9858 12.5386 15.1917
1 27.7795 11.7449 15.1917
1 27.7788 12.5311 14.4094
1 26.9797 11.7305 14.3857
1 28.5732 12.5386 15.1917
1 29.3669 11.7449 15.1917
1 29.3084 12.5494 14.3642
1 28.5514 11.7361 14.3782
1 0 10.9512 15.1917
1 0.793701 10.1575 15.1917
1 0.835602 10.958 14.3916
1 0.0623718 10.1561 14.3316
1 1.5874 10.9512 15.1917
1 2.3811 10.1575 15.1917
1 2.3898 10.9568 14.3988
1 1.60071 10.1379 14.4054
1 3.1748 10.9512 15.1917
1 3.9685 10.1575 15.1917
1 3.97214 10.9304 14.3958
1 3.19528 10.151 14.373
1 4.7622 10.9512 15.1917
1 5.5559 10.1575 15.1917
1 5.55786 10.9541 14.3898
1 4.77758 10.1378 14.3907
1 6.3496 10.9512 15.1917
1 7.1433 10.1575 15.1917
1 7.14847 10.9634 14.4091
1 6.36447 10.1482 14.4067
1 7.93701 10.9512 15.1917
1 8.73071 10.1575 15.1917
1 8.74022 10.975 14.4295
1 7.95996 10.1703 14.4011
1 9.52441 10.9512 15.1917
1 10.3181 10.1575 15.1917
1 10.304 10.9521 14.4109
1 9.54197 10.1507 14.3784
1 11.1118 10.9512 15.1917
1 11.9055 10.1575 15.1917
1 11.9103 10.9291 14.386
1 11.0919 10.1609 14.3943
1 12.6992 10.9512 15.1917
1 13.4929 10.1575 15.1917
1 13.5089 10.948 14.4056
1 12.7087 10.1606 14.3849
1 14.2866 10.9512 15.1917
1 15.0803 10.1575 15.1917
1 15.0588 10.9509 14.3923
1 14.2956 10.1613 14.3865
1 15.874 10.9512 15.1917
1 16.6677 10.1575 15.1917
1 16.6615 10.9435 14.4141
1 15.8484 10.1812 14.3842
1 17.4614 10.9512 15.1917
1 18.2551 10.1575 15.1917
1 18.2595 10.9658 14.3798
1 17.4463 10.1852 14.399
1 19.0488 10.9512 15.1917
1 19.8425 10.1575 15.1917
1 19.817 10.9631 14.4164
1 19.042 10.1743 14.4123
1 20.6362 10.9512 15.1917
1 21.4299 10.1575 15.1917
1 21.4251 10.9459 14.4305
1 20.61 10.1732 14.4211
1 22.2236 10.9512 15.1917
1 23.0173 10.1575 15.1917
1 23.003 10.9609 14.393
1 22.2253 10.1802 14.4167
1 23.811 10.9512 15.1917
1 24.6047 10.1575 15.1917
1 24.5883 10.9787 14.391
1 23.8284 10.1682 14.4014
1 25.3984 10.9512 15.1917
1 26.1921 10.1575 15.1917
1 26.1568 10.9615 14.3903
1 25.3912 10.1923 14.4068
1 26.9858 10.9512 15.1917
1 27.7795 10.1575 15.1917
1 27.7357 10.9452 14.3875
1 26.969 10.1483 14.3961
1 28.5732 10.9512 15.1917
1 29.3669 10.1575 15.1917
1 29.313 10.936 14.3382
1 28.5469 10.1699 14.3835
1 0 9.36379 15.1917
1 0.793701 8.57009 15.1917
1 0.804709 9.34645 14.3678
1 0.0666606 8.55549 14.366
1 1.5874 9.36379 15.1917
1 2.3811 8.57009 15.1917
1 2.41642 9.35252 14.416
1 1.60322 8.58164 14.4359
1 3.1748 9.36379 15.1917
1 3.9685 8.57009 15.1917
1 3.99402 9.35126 14.4132
1 3.20324 8.57142 14.3728
1 4.7622 9.36379 15.1917
1 5.5559 8.57009 15.1917
1 5.56285 9.3385 14.3678
1 4.784 8.58456 14.3967
1 6.3496 9.36379 15.1917
1 7.1433 8.57009 15.1917
1 7.17666 9.3785 14.359
1 6.34784 8.58097 14.3959
1 7.93701 9.36379 15.1917
1 8.73071 8.57009 15.1917
1 8.7447 9.36001 14.381
1 7.93274 8.56807 14.3704
1 9.52441 9.36379 15.1917
1 10.3181 8.57009 15.1917
1 10.3022 9.36517 14.3693
1 9.54822 8.5651 14.4073
1 11.1118 9.36379 15.1917
1 11.9055 8.57009 15.1917
1 11.8845 9.36935 14.4006
1 11.1074 8.54617 14.3835
1 12.6992 9.36379 15.1917
1 13.4929 8.57009 15.1917
1 13.5031 9.37781 14.4007
1 12.6869 8.58709 14.407
1 14.2866 9.36379 15.1917
1 15.0803 8.57009 15.1917
1 15.1177 9.39337 14.4106
1 14.2909 8.59149 14.3925
1 15.874 9.36379 15.1917
1 16.6677 8.57009 15.1917
1 16.6574 9.37138 14.4054
1 15.8812 8.54584 14.4186
1 17.4614 9.36379 15.1917
1 18.2551 8.57009 15.1917
1 18.2627 9.38506 14.4137
1 17.4625 8.564 14.4055
1 19.0488 9.36379 15.1917
1 19.8425 8.57009 15.1917
1 19.8501 9.36431 14.4011
1 19.0694 8.55737 14.411
1 20.6362 9.36379 15.1917
1 21.4299 8.57009 15.1917
1 21.414 9.38597 14.4042
1 20.6295 8.56623 14.4169
1 22.2236 9.36379 15.1917
1 23.0173 8.57009 15.1917
1 23.0075 9.39196 14.3995
1 22.222 8.59152 14.4034
1 23.811 9.36379 15.1917
1 24.6047 8.57009 15.1917
1 24.6063 9.36525 14.4068
1 23.7889 8.60445 14.3814
1 25.3984 9.36379 15.1917
1 26.1921 8.57009 15.1917
1 26.1778 9.38318 14.4409
1 25.397 8.57238 14.3838
1 26.9858 9.36379 15.1917
1 27.7795 8.57009 15.1917
1 27.7776 9.3611 14.3948
1 26.9583 8.58353 14.3937
1 28.5732 9.36379 15.1917
1 29.3669 8.57009 15.1917
1 29.3035 9.35598 14.3672
1 28.5734 8.57652 14.411
1 0 7.77639 15.1917
1 0.793701 6.98268 15.1917
1 0.800287 7.78299 14.422
1 0.0572881 7.00622 14.3987
1 1.5874 7.77639 15.1917
1 2.3811 6.98268 15.1917
1 2.42476 7.77767 14.4126
1 1.61049 6.98969 14.4118
1 3.1748 7.77639 15.1917
1 3.9685 6.98268 15.1917
1 3.99723 7.78693 14.3777
1 3.20962 6.97641 14.4016
1 4.7622 7.77639 15.1917
1 5.5559 6.98268 15.1917
1 5.56177 7.76317 14.4056
1 4.756 7.00796 14.3966
1 6.3496 7.77639 15.1917
1 7.1433 6.98268 15.1917
1 7.14451 7.77983 14.3884
1 6.3699 6.95826 14.4014
1 7.93701 7.77639 15.1917
1 8.73071 6.98268 15.1917
1 8.72645 7.78782 14.3806
1 7.90613 6.98118 14.3993
1 9.52441 7.77639 15.1917
1 10.3181 6.98268 15.1917
1 10.3119 7.76585 14.3868
1 9.54039 6.96568 14.4225
1 11.1118 7.77639 15.1917
1 11.9055 6.98268 15.1917
1 11.9109 7.79783 14.3897
1 11.14 6.97892 14.3892
1 12.6992 7.77639 15.1917
1 13.4929 6.98268 15.1917
1 13.4992 7.78537 14.3765
1 12.7061 6.99212 14.412
1 14.2866 7.77639 15.1917
1 15.0803 6.98268 15.1917
1 15.0917 7.79767 14.3948
1 14.2902 6.968 14.399
1 15.874 7.77639 15.1917
1 16.6677 6.98268 15.1917
1 16.6833 7.74008 14.4032
1 15.8916 6.97485 14.3965
1 17.4614 7.77639 15.1917
1 18.2551 6.98268 15.1917
1 18.2473 7.78464 14.4092
1 17.4708 6.99322 14.4047
1 19.0488 7.77639 15.1917
1 19.8425 6.98268 15.1917
1 19.8633 7.73605 14.3633
1 19.049 6.9659 14.4063
1 20.6362 7.77639 15.1917
1 21.4299 6.98268 15.1917
1 21.4465 7.77987 14.4161
1 20.6461 6.97936 14.4047
1 22.2236 7.77639 15.1917
1 23.0173 6.98268 15.1917
1 23.001 7.79421 14.4233
1 22.2334 6.98123 14.4105
1 23.811 7.77639 15.1917
1 24.6047 6.98268 15.1917
1 24.601 7.79635 14.4157
1 23.7969 6.98379 14.4027
1 25.3984 7.77639 15.1917
1 26.1921 6.98268 15.1917
1 26.1869 7.78522 14.3676
1 25.3962 6.95919 14.3899
1 26.9858 7.77639 15.1917
1 27.7795 6.98268 15.1917
1 27.751 7.78136 14.3907
1 26.9691 6.97037 14.3916
1 28.5732 7.77639 15.1917
1 29.3669 6.98268 15.1917
1 29.2916 7.76826 14.3588
1 28.5113 6.98083 14.3861
1 0 6.18898 15.1917
1 0.793701 5.39528 15.1917
1 0.823178 6.18647 14.4035
1 0.0822031 5.41763 14.3392
1 1.5874 6.18898 15.1917
1 2.3811 5.39528 15.1917
1 2.39341 6.20806 14.4043
1 1.61943 5.40995 14.3942
1 3.1748 6.18898 15.1917
1 3.9685 5.39528 15.1917
1 3.98669 6.18405 14.3828
1 3.18518 5.3973 14.4044
1 4.7622 6.18898 15.1917
1 5.5559 5.39528 15.1917
1 5.53377 6.20874 14.3771
1 4.75845 5.40818 14.391
1 6.3496 6.18898 15.1917
1 7.1433 5.39528 15.1917
1 7.14793 6.16423 14.3924
1 6.34004 5.40299 14.3895
1 7.93701 6.18898 15.1917
1 8.73071 5.39528 15.1917
1 8.73931 6.17006 14.4145
1 7.93804 5.39094 14.4013
1 9.52441 6.18898 15.1917