12976
Atoms. Timestep: 4000000
1 30 7.10543e-15 17.5608
1 0.793701 29.2063 17.5608
1 0.810829 29.9169 16.6968
1 0.0349295 29.164 16.722
1 1.5874 7.10543e-15 17.5608
1 2.3811 29.2063 17.5608
1 2.39307 29.948 16.7273
1 1.59399 29.2063 16.7439
1 3.1748 7.10543e-15 17.5608
1 3.9685 29.2063 17.5608
1 3.99406 29.9435 16.7394
1 3.17501 29.2112 16.7707
1 4.7622 7.10543e-15 17.5608
1 5.5559 29.2063 17.5608
1 5.57388 29.915 16.7399
1 4.77951 29.1694 16.7747
1 6.3496 7.10543e-15 17.5608
1 7.1433 29.2063 17.5608
1 7.12573 29.9298 16.7179
1 6.37179 29.1928 16.7447
1 7.93701 7.10543e-15 17.5608
1 8.73071 29.2063 17.5608
1 8.71551 29.9492 16.7327
1 7.9444 29.1862 16.765
1 9.52441 7.10543e-15 17.5608
1 10.3181 29.2063 17.5608
1 10.3145 29.9385 16.7569
1 9.50586 29.1678 16.7854
1 11.1118 7.10543e-15 17.5608
1 11.9055 29.2063 17.5608
1 11.8833 29.9174 16.7416
1 11.0838 29.1536 16.7702
1 12.6992 7.10543e-15 17.5608
1 13.4929 29.2063 17.5608
1 13.5021 29.91 16.7438
1 12.71 29.1982 16.7759
1 14.2866 7.10543e-15 17.5608
1 15.0803 29.2063 17.5608
1 15.0835 29.9554 16.7346
1 14.2871 29.1906 16.7526
1 15.874 7.10543e-15 17.5608
1 16.6677 29.2063 17.5608
1 16.6701 29.9151 16.7449
1 15.8616 29.2036 16.7779
1 17.4614 7.10543e-15 17.5608
1 18.2551 29.2063 17.5608
1 18.2935 29.9089 16.7194
1 17.4607 29.1642 16.7599
1 19.0488 7.10543e-15 17.5608
1 19.8425 29.2063 17.5608
1 19.8451 29.9084 16.7415
1 19.0451 29.1486 16.779
1 20.6362 7.10543e-15 17.5608
1 21.4299 29.2063 17.5608
1 21.4337 29.9281 16.7273
1 20.6557 29.1473 16.7782
1 22.2236 7.10543e-15 17.5608
1 23.0173 29.2063 17.5608
1 23.0151 29.9322 16.7214
1 22.2103 29.1685 16.7696
1 23.811 7.10543e-15 17.5608
1 24.6047 29.2063 17.5608
1 24.6046 29.9442 16.7563
1 23.821 29.1864 16.7399
1 25.3984 7.10543e-15 17.5608
1 26.1921 29.2063 17.5608
1 26.1752 29.9099 16.7499
1 25.3935 29.1586 16.7725
1 26.9858 7.10543e-15 17.5608
1 27.7795 29.2063 17.5608
1 27.7646 29.9187 16.7422
1 26.9788 29.1684 16.7465
1 28.5732 7.10543e-15 17.5608
1 29.3669 29.2063 17.5608
1 29.2741 29.9448 16.6949
1 28.5306 29.1812 16.7457
1 30 28.4126 17.5608
1 0.793701 27.6189 17.5608
1 0.813256 28.4126 16.7386
1 0.0732886 27.6286 16.7328
1 1.5874 28.4126 17.5608
1 2.3811 27.6189 17.5608
1 2.38368 28.417 16.7432
1 1.60111 27.6127 16.7482
1 3.1748 28.4126 17.5608
1 3.9685 27.6189 17.5608
1 3.99406 28.4099 16.7801
1 3.18474 27.6138 16.7617
1 4.7622 28.4126 17.5608
1 5.5559 27.6189 17.5608
1 5.57956 28.3913 16.775
1 4.74275 27.6242 16.7768
1 6.3496 28.4126 17.5608
1 7.1433 27.6189 17.5608
1 7.1471 28.3841 16.7658
1 6.37582 27.5974 16.7716
1 7.93701 28.4126 17.5608
1 8.73071 27.6189 17.5608
1 8.70227 28.3978 16.7748
1 7.91744 27.605 16.7288
1 9.52441 28.4126 17.5608
1 10.3181 27.6189 17.5608
1 10.3014 28.3756 16.7636
1 9.48774 27.5892 16.7779
1 11.1118 28.4126 17.5608
1 11.9055 27.6189 17.5608
1 11.9134 28.396 16.7777
1 11.1149 27.5805 16.7677
1 12.6992 28.4126 17.5608
1 13.4929 27.6189 17.5608
1 13.5076 28.393 16.7594
1 12.7036 27.6012 16.745
1 14.2866 28.4126 17.5608
1 15.0803 27.6189 17.5608
1 15.0752 28.3928 16.787
1 14.274 27.5788 16.7814
1 15.874 28.4126 17.5608
1 16.6677 27.6189 17.5608
1 16.6752 28.4013 16.7622
1 15.8775 27.5964 16.7719
1 17.4614 28.4126 17.5608
1 18.2551 27.6189 17.5608
1 18.2456 28.3882 16.7721
1 17.4569 27.5961 16.7524
1 19.0488 28.4126 17.5608
1 19.8425 27.6189 17.5608
1 19.8382 28.3861 16.7754
1 19.0449 27.6113 16.7669
1 20.6362 28.4126 17.5608
1 21.4299 27.6189 17.5608
1 21.4316 28.3763 16.7553
1 20.6285 27.5742 16.7641
1 22.2236 28.4126 17.5608
1 23.0173 27.6189 17.5608
1 22.9887 28.3993 16.7435
1 22.2188 27.5822 16.7596
1 23.811 28.4126 17.5608
1 24.6047 27.6189 17.5608
1 24.5992 28.3986 16.7914
1 23.7986 27.5949 16.7569
1 25.3984 28.4126 17.5608
1 26.1921 27.6189 17.5608
1 26.1912 28.408 16.7754
1 25.3991 27.6204 16.7784
1 26.9858 28.4126 17.5608
1 27.7795 27.6189 17.5608
1 27.7726 28.3989 16.7673
1 26.9623 27.6033 16.7638
1 28.5732 28.4126 17.5608
1 29.3669 27.6189 17.5608
1 29.2955 28.3995 16.7229
1 28.5546 27.6219 16.7622
1 30 26.8252 17.5608
1 0.793701 26.0315 17.5608
1 0.817134 26.8057 16.7575
1 0.0701271 26.0291 16.744
1 1.5874 26.8252 17.5608
1 2.3811 26.0315 17.5608
1 2.40331 26.8259 16.7625
1 1.59961 26.0408 16.7604
1 3.1748 26.8252 17.5608
1 3.9685 26.0315 17.5608
1 3.9686 26.8339 16.7626
1 3.17421 26.0419 16.7452
1 4.7622 26.8252 17.5608
1 5.5559 26.0315 17.5608
1 5.55117 26.8419 16.7726
1 4.76628 26.0592 16.7626
1 6.3496 26.8252 17.5608
1 7.1433 26.0315 17.5608
1 7.15786 26.8019 16.7536
1 6.35242 26.0288 16.7593
1 7.93701 26.8252 17.5608
1 8.73071 26.0315 17.5608
1 8.70791 26.8055 16.7481
1 7.93321 26.0316 16.752
1 9.52441 26.8252 17.5608
1 10.3181 26.0315 17.5608
1 10.3219 26.831 16.777
1 9.52496 26.0464 16.7968
1 11.1118 26.8252 17.5608
1 11.9055 26.0315 17.5608
1 11.9054 26.8103 16.7771
1 11.0877 26.0138 16.7643
1 12.6992 26.8252 17.5608
1 13.4929 26.0315 17.5608
1 13.4828 26.816 16.7889
1 12.6753 26.0188 16.7664
1 14.2866 26.8252 17.5608
1 15.0803 26.0315 17.5608
1 15.0805 26.8097 16.7921
1 14.2491 26 16.7612
1 15.874 26.8252 17.5608
1 16.6677 26.0315 17.5608
1 16.6725 26.7981 16.7861
1 15.8561 26.0156 16.7653
1 17.4614 26.8252 17.5608
1 18.2551 26.0315 17.5608
1 18.2573 26.8224 16.7157
1 17.4663 26.0286 16.7661
1 19.0488 26.8252 17.5608
1 19.8425 26.0315 17.5608
1 19.8487 26.8136 16.7918
1 19.0302 26.0037 16.7825
1 20.6362 26.8252 17.5608
1 21.4299 26.0315 17.5608
1 21.4129 26.8082 16.7627
1 20.6346 25.9959 16.7553
1 22.2236 26.8252 17.5608
1 23.0173 26.0315 17.5608
1 23.0287 26.8097 16.7721
1 22.2192 26.0228 16.7986
1 23.811 26.8252 17.5608
1 24.6047 26.0315 17.5608
1 24.6011 26.8203 16.7585
1 23.8162 26.0237 16.7898
1 25.3984 26.8252 17.5608
1 26.1921 26.0315 17.5608
1 26.1621 26.8209 16.7595
1 25.3717 26.0287 16.7371
1 26.9858 26.8252 17.5608
1 27.7795 26.0315 17.5608
1 27.7579 26.8213 16.7675
1 26.9511 26.0331 16.7501
1 28.5732 26.8252 17.5608
1 29.3669 26.0315 17.5608
1 29.3253 26.8068 16.7364
1 28.5492 26.0271 16.7667
1 30 25.2378 17.5608
1 0.793701 24.4441 17.5608
1 0.808937 25.2142 16.7589
1 0.0513019 24.4366 16.7245
1 1.5874 25.2378 17.5608
1 2.3811 24.4441 17.5608
1 2.37966 25.2377 16.7702
1 1.62451 24.4163 16.8002
1 3.1748 25.2378 17.5608
1 3.9685 24.4441 17.5608
1 3.96225 25.2481 16.7769
1 3.18746 24.4337 16.7651
1 4.7622 25.2378 17.5608
1 5.5559 24.4441 17.5608
1 5.51975 25.2333 16.7842
1 4.755 24.4468 16.7568
1 6.3496 25.2378 17.5608
1 7.1433 24.4441 17.5608
1 7.12232 25.2591 16.7769
1 6.32744 24.4438 16.7838
1 7.93701 25.2378 17.5608
1 8.73071 24.4441 17.5608
1 8.74523 25.2411 16.7567
1 7.92924 24.4512 16.7588
1 9.52441 25.2378 17.5608
1 10.3181 24.4441 17.5608
1 10.2872 25.2176 16.7517
1 9.52849 24.453 16.7537
1 11.1118 25.2378 17.5608
1 11.9055 24.4441 17.5608
1 11.898 25.2342 16.7773
1 11.1088 24.4431 16.7654
1 12.6992 25.2378 17.5608
1 13.4929 24.4441 17.5608
1 13.4717 25.2268 16.7737
1 12.6622 24.4267 16.7508
1 14.2866 25.2378 17.5608
1 15.0803 24.4441 17.5608
1 15.0639 25.255 16.7704
1 14.2939 24.4406 16.7495
1 15.874 25.2378 17.5608
1 16.6677 24.4441 17.5608
1 16.6729 25.235 16.768
1 15.8594 24.4431 16.7538
1 17.4614 25.2378 17.5608
1 18.2551 24.4441 17.5608
1 18.2511 25.2102 16.7699
1 17.4567 24.4454 16.7738
1 19.0488 25.2378 17.5608
1 19.8425 24.4441 17.5608
1 19.8111 25.2288 16.7668
1 19.0434 24.418 16.7758
1 20.6362 25.2378 17.5608
1 21.4299 24.4441 17.5608
1 21.4255 25.2176 16.7748
1 20.6497 24.4231 16.7659
1 22.2236 25.2378 17.5608
1 23.0173 24.4441 17.5608
1 22.9974 25.2296 16.7721
1 22.2429 24.4387 16.7888
1 23.811 25.2378 17.5608
1 24.6047 24.4441 17.5608
1 24.6197 25.2277 16.778
1 23.8142 24.4391 16.7682
1 25.3984 25.2378 17.5608
1 26.1921 24.4441 17.5608
1 26.1797 25.2345 16.7398
1 25.3839 24.4206 16.7599
1 26.9858 25.2378 17.5608
1 27.7795 24.4441 17.5608
1 27.7784 25.2262 16.7782
1 26.9668 24.4122 16.7589
1 28.5732 25.2378 17.5608
1 29.3669 24.4441 17.5608
1 29.3014 25.2419 16.7436
1 28.5321 24.4446 16.7611
1 30 23.6504 17.5608
1 0.793701 22.8567 17.5608
1 0.832916 23.6341 16.7568
1 0.0572864 22.8487 16.7263
1 1.5874 23.6504 17.5608
1 2.3811 22.8567 17.5608
1 2.40308 23.6531 16.7757
1 1.5853 22.8375 16.7643
1 3.1748 23.6504 17.5608
1 3.9685 22.8567 17.5608
1 3.99058 23.6461 16.7842
1 3.18659 22.8435 16.7657
1 4.7622 23.6504 17.5608
1 5.5559 22.8567 17.5608
1 5.55173 23.6486 16.7885
1 4.76131 22.8607 16.8012
1 6.3496 23.6504 17.5608
1 7.1433 22.8567 17.5608
1 7.13714 23.6633 16.7384
1 6.34837 22.8752 16.8018
1 7.93701 23.6504 17.5608
1 8.73071 22.8567 17.5608
1 8.73691 23.6723 16.7554
1 7.93407 22.8449 16.7746
1 9.52441 23.6504 17.5608
1 10.3181 22.8567 17.5608
1 10.3254 23.654 16.7696
1 9.52663 22.8614 16.7853
1 11.1118 23.6504 17.5608
1 11.9055 22.8567 17.5608
1 11.8898 23.6274 16.7368
1 11.1259 22.8358 16.7636
1 12.6992 23.6504 17.5608
1 13.4929 22.8567 17.5608
1 13.4683 23.6716 16.7689
1 12.6876 22.8491 16.7668
1 14.2866 23.6504 17.5608
1 15.0803 22.8567 17.5608
1 15.0793 23.6419 16.7631
1 14.2679 22.8958 16.7602
1 15.874 23.6504 17.5608
1 16.6677 22.8567 17.5608
1 16.6625 23.6497 16.7662
1 15.9031 22.8524 16.7742
1 17.4614 23.6504 17.5608
1 18.2551 22.8567 17.5608
1 18.2331 23.6607 16.759
1 17.4731 22.8595 16.7879
1 19.0488 23.6504 17.5608
1 19.8425 22.8567 17.5608
1 19.8369 23.6548 16.7811
1 19.0458 22.8662 16.7783
1 20.6362 23.6504 17.5608
1 21.4299 22.8567 17.5608
1 21.4574 23.6281 16.7945
1 20.627 22.8485 16.7807
1 22.2236 23.6504 17.5608
1 23.0173 22.8567 17.5608
1 23.0062 23.6271 16.7689
1 22.2428 22.8573 16.7804
1 23.811 23.6504 17.5608
1 24.6047 22.8567 17.5608
1 24.5897 23.6447 16.7553
1 23.8065 22.8661 16.774
1 25.3984 23.6504 17.5608
1 26.1921 22.8567 17.5608
1 26.1954 23.6595 16.7443
1 25.3855 22.8384 16.7819
1 26.9858 23.6504 17.5608
1 27.7795 22.8567 17.5608
1 27.7557 23.63 16.7586
1 26.9784 22.8299 16.7611
1 28.5732 23.6504 17.5608
1 29.3669 22.8567 17.5608
1 29.3052 23.678 16.7186
1 28.5473 22.829 16.7614
1 30 22.063 17.5608
1 0.793701 21.2693 17.5608
1 0.827528 22.058 16.7647
1 0.0804039 21.259 16.7082
1 1.5874 22.063 17.5608
1 2.3811 21.2693 17.5608
1 2.37777 22.0666 16.7956
1 1.57978 21.2797 16.7699
1 3.1748 22.063 17.5608
1 3.9685 21.2693 17.5608
1 3.96536 22.0692 16.7567
1 3.19831 21.2954 16.7732
1 4.7622 22.063 17.5608
1 5.5559 21.2693 17.5608
1 5.56833 22.0823 16.7987
1 4.75431 21.2921 16.7763
1 6.3496 22.063 17.5608
1 7.1433 21.2693 17.5608
1 7.15455 22.0558 16.7602
1 6.32021 21.2807 16.7675
1 7.93701 22.063 17.5608
1 8.73071 21.2693 17.5608
1 8.72831 22.058 16.7723
1 7.93415 21.2559 16.7597
1 9.52441 22.063 17.5608
1 10.3181 21.2693 17.5608
1 10.3036 22.0546 16.7759
1 9.53444 21.238 16.7756
1 11.1118 22.063 17.5608
1 11.9055 21.2693 17.5608
1 11.9102 22.036 16.7625
1 11.0865 21.2469 16.7529
1 12.6992 22.063 17.5608
1 13.4929 21.2693 17.5608
1 13.4867 22.0688 16.7902
1 12.6894 21.2739 16.7743
1 14.2866 22.063 17.5608
1 15.0803 21.2693 17.5608
1 15.0899 22.0598 16.7511
1 14.3034 21.2541 16.7405
1 15.874 22.063 17.5608
1 16.6677 21.2693 17.5608
1 16.6719 22.0563 16.765
1 15.8564 21.2697 16.7891
1 17.4614 22.063 17.5608
1 18.2551 21.2693 17.5608
1 18.2632 22.0417 16.7766
1 17.4529 21.2682 16.7814
1 19.0488 22.063 17.5608
1 19.8425 21.2693 17.5608
1 19.8506 22.0623 16.7645
1 19.0094 21.2686 16.7674
1 20.6362 22.063 17.5608
1 21.4299 21.2693 17.5608
1 21.4322 22.0633 16.7754
1 20.6145 21.2484 16.8188
1 22.2236 22.063 17.5608
1 23.0173 21.2693 17.5608
1 23.0401 22.0577 16.7622
1 22.244 21.2635 16.8092
1 23.811 22.063 17.5608
1 24.6047 21.2693 17.5608
1 24.5863 22.0976 16.7765
1 23.783 21.2479 16.7766
1 25.3984 22.063 17.5608
1 26.1921 21.2693 17.5608
1 26.1937 22.068 16.7623
1 25.4043 21.2806 16.7816
1 26.9858 22.063 17.5608
1 27.7795 21.2693 17.5608
1 27.7826 22.0705 16.7452
1 26.9812 21.2756 16.7459
1 28.5732 22.063 17.5608
1 29.3669 21.2693 17.5608
1 29.2877 22.042 16.7287
1 28.5542 21.2729 16.7464
1 30 20.4756 17.5608
1 0.793701 19.6819 17.5608
1 0.835911 20.4807 16.7637
1 0.0825614 19.7056 16.7386
1 1.5874 20.4756 17.5608
1 2.3811 19.6819 17.5608
1 2.37216 20.4847 16.755
1 1.57196 19.6869 16.7562
1 3.1748 20.4756 17.5608
1 3.9685 19.6819 17.5608
1 3.99086 20.4801 16.7759
1 3.18721 19.6984 16.769
1 4.7622 20.4756 17.5608
1 5.5559 19.6819 17.5608
1 5.54601 20.4728 16.7853
1 4.76227 19.6856 16.7687
1 6.3496 20.4756 17.5608
1 7.1433 19.6819 17.5608
1 7.15103 20.4703 16.7754
1 6.36101 19.6378 16.7754
1 7.93701 20.4756 17.5608
1 8.73071 19.6819 17.5608
1 8.72755 20.475 16.7813
1 7.95262 19.6796 16.7682
1 9.52441 20.4756 17.5608
1 10.3181 19.6819 17.5608
1 10.337 20.4887 16.7659
1 9.54187 19.6891 16.7639
1 11.1118 20.4756 17.5608
1 11.9055 19.6819 17.5608
1 11.9034 20.4891 16.7755
1 11.1366 19.67 16.783
1 12.6992 20.4756 17.5608
1 13.4929 19.6819 17.5608
1 13.4965 20.4968 16.7655
1 12.7292 19.6962 16.7715
1 14.2866 20.4756 17.5608
1 15.0803 19.6819 17.5608
1 15.072 20.4684 16.7646
1 14.2867 19.683 16.7569
1 15.874 20.4756 17.5608
1 16.6677 19.6819 17.5608
1 16.6726 20.4993 16.7501
1 15.8925 19.6859 16.7613
1 17.4614 20.4756 17.5608
1 18.2551 19.6819 17.5608
1 18.2533 20.4861 16.7626
1 17.4521 19.6871 16.7648
1 19.0488 20.4756 17.5608
1 19.8425 19.6819 17.5608
1 19.8319 20.4694 16.7874
1 19.0509 19.6923 16.7553
1 20.6362 20.4756 17.5608
1 21.4299 19.6819 17.5608
1 21.4131 20.4704 16.773
1 20.6296 19.6796 16.7744
1 22.2236 20.4756 17.5608
1 23.0173 19.6819 17.5608
1 23.0114 20.4724 16.7644
1 22.2169 19.6904 16.785
1 23.811 20.4756 17.5608
1 24.6047 19.6819 17.5608
1 24.6037 20.458 16.7799
1 23.8136 19.6822 16.7544
1 25.3984 20.4756 17.5608
1 26.1921 19.6819 17.5608
1 26.1946 20.4961 16.7703
1 25.3929 19.68 16.7789
1 26.9858 20.4756 17.5608
1 27.7795 19.6819 17.5608
1 27.778 20.509 16.7787
1 26.9491 19.7051 16.7798
1 28.5732 20.4756 17.5608
1 29.3669 19.6819 17.5608
1 29.3153 20.4678 16.7265
1 28.5219 19.6858 16.7742
1 30 18.8882 17.5608
1 0.793701 18.0945 17.5608
1 0.823223 18.8781 16.793
1 0.0575258 18.1179 16.7453
1 1.5874 18.8882 17.5608
1 2.3811 18.0945 17.5608
1 2.3734 18.8764 16.7648
1 1.61056 18.0645 16.7831
1 3.1748 18.8882 17.5608
1 3.9685 18.0945 17.5608
1 3.97341 18.8866 16.7706
1 3.17935 18.1166 16.7692
1 4.7622 18.8882 17.5608
1 5.5559 18.0945 17.5608
1 5.55488 18.862 16.7705
1 4.75214 18.1062 16.7484
1 6.3496 18.8882 17.5608
1 7.1433 18.0945 17.5608
1 7.16988 18.8832 16.7653
1 6.37039 18.1166 16.7621
1 7.93701 18.8882 17.5608
1 8.73071 18.0945 17.5608
1 8.71151 18.874 16.7574
1 7.93387 18.0872 16.7798
1 9.52441 18.8882 17.5608
1 10.3181 18.0945 17.5608
1 10.3121 18.9136 16.7675
1 9.53633 18.117 16.7822
1 11.1118 18.8882 17.5608
1 11.9055 18.0945 17.5608
1 11.9088 18.8837 16.7651
1 11.1097 18.0949 16.7717
1 12.6992 18.8882 17.5608
1 13.4929 18.0945 17.5608
1 13.5137 18.8932 16.7513
1 12.7043 18.0807 16.7716
1 14.2866 18.8882 17.5608
1 15.0803 18.0945 17.5608
1 15.0939 18.8942 16.7528
1 14.326 18.0949 16.7768
1 15.874 18.8882 17.5608
1 16.6677 18.0945 17.5608
1 16.6591 18.8978 16.7603
1 15.8672 18.0832 16.7509
1 17.4614 18.8882 17.5608
1 18.2551 18.0945 17.5608
1 18.2482 18.9002 16.767
1 17.4739 18.0846 16.7579
1 19.0488 18.8882 17.5608
1 19.8425 18.0945 17.5608
1 19.8146 18.8955 16.7681
1 19.0308 18.1077 16.7819
1 20.6362 18.8882 17.5608
1 21.4299 18.0945 17.5608
1 21.4262 18.8952 16.7686
1 20.6122 18.1076 16.7648
1 22.2236 18.8882 17.5608
1 23.0173 18.0945 17.5608
1 23.0148 18.901 16.7848
1 22.2437 18.0741 16.782
1 23.811 18.8882 17.5608
1 24.6047 18.0945 17.5608
1 24.5913 18.8926 16.7829
1 23.8048 18.1067 16.758
1 25.3984 18.8882 17.5608
1 26.1921 18.0945 17.5608
1 26.1855 18.8822 16.7626
1 25.4059 18.086 16.7917
1 26.9858 18.8882 17.5608
1 27.7795 18.0945 17.5608
1 27.7595 18.8984 16.7625
1 26.9752 18.0776 16.7663
1 28.5732 18.8882 17.5608
1 29.3669 18.0945 17.5608
1 29.2965 18.9201 16.7148
1 28.5532 18.1008 16.7621
1 30 17.3008 17.5608
1 0.793701 16.5071 17.5608
1 0.831881 17.2673 16.7687
1 0.0550914 16.5001 16.7413
1 1.5874 17.3008 17.5608
1 2.3811 16.5071 17.5608
1 2.38947 17.2799 16.7778
1 1.5841 16.4908 16.7686
1 3.1748 17.3008 17.5608
1 3.9685 16.5071 17.5608
1 3.97751 17.3381 16.7811
1 3.1799 16.5141 16.7762
1 4.7622 17.3008 17.5608
1 5.5559 16.5071 17.5608
1 5.57319 17.3142 16.7635
1 4.7903 16.4835 16.7441
1 6.3496 17.3008 17.5608
1 7.1433 16.5071 17.5608
1 7.13611 17.3251 16.7455
1 6.34194 16.5038 16.7597
1 7.93701 17.3008 17.5608
1 8.73071 16.5071 17.5608
1 8.73386 17.3375 16.7999
1 7.93253 16.5194 16.7701
1 9.52441 17.3008 17.5608
1 10.3181 16.5071 17.5608
1 10.299 17.2983 16.7686
1 9.4803 16.4906 16.7879
1 11.1118 17.3008 17.5608
1 11.9055 16.5071 17.5608
1 11.8796 17.3269 16.7826
1 11.1043 16.5027 16.7715
1 12.6992 17.3008 17.5608
1 13.4929 16.5071 17.5608
1 13.5 17.3103 16.7737
1 12.693 16.5456 16.7668
1 14.2866 17.3008 17.5608
1 15.0803 16.5071 17.5608
1 15.0798 17.3079 16.7323
1 14.2912 16.5162 16.7582
1 15.874 17.3008 17.5608
1 16.6677 16.5071 17.5608
1 16.6425 17.295 16.7453
1 15.8756 16.5172 16.7524
1 17.4614 17.3008 17.5608
1 18.2551 16.5071 17.5608
1 18.2615 17.3386 16.7497
1 17.4468 16.5084 16.7891
1 19.0488 17.3008 17.5608
1 19.8425 16.5071 17.5608
1 19.8109 17.2957 16.773
1 19.0336 16.484 16.7447
1 20.6362 17.3008 17.5608
1 21.4299 16.5071 17.5608
1 21.4084 17.3072 16.8073
1 20.6267 16.4874 16.7607
1 22.2236 17.3008 17.5608
1 23.0173 16.5071 17.5608
1 23.016 17.2736 16.768
1 22.2291 16.4859 16.7657
1 23.811 17.3008 17.5608
1 24.6047 16.5071 17.5608
1 24.6074 17.3035 16.7746
1 23.8228 16.4962 16.7845
1 25.3984 17.3008 17.5608
1 26.1921 16.5071 17.5608
1 26.1974 17.311 16.747
1 25.3989 16.5036 16.779
1 26.9858 17.3008 17.5608
1 27.7795 16.5071 17.5608
1 27.7882 17.3008 16.7782
1 26.95 16.5017 16.7528
1 28.5732 17.3008 17.5608
1 29.3669 16.5071 17.5608
1 29.3068 17.2656 16.725
1 28.5561 16.4963 16.7682
1 30 15.7134 17.5608
1 0.793701 14.9197 17.5608
1 0.819969 15.6888 16.7744
1 0.0870748 14.8993 16.7507
1 1.5874 15.7134 17.5608
1 2.3811 14.9197 17.5608
1 2.39346 15.7167 16.7409
1 1.60392 14.9216 16.7701
1 3.1748 15.7134 17.5608
1 3.9685 14.9197 17.5608
1 3.9908 15.7449 16.7453
1 3.19856 14.9292 16.7775
1 4.7622 15.7134 17.5608
1 5.5559 14.9197 17.5608
1 5.57345 15.721 16.7651
1 4.77628 14.9606 16.773
1 6.3496 15.7134 17.5608
1 7.1433 14.9197 17.5608
1 7.13671 15.7123 16.7709
1 6.35896 14.9208 16.7721
1 7.93701 15.7134 17.5608
1 8.73071 14.9197 17.5608
1 8.744 15.7254 16.7512
1 7.93907 14.9173 16.7545
1 9.52441 15.7134 17.5608
1 10.3181 14.9197 17.5608
1 10.3072 15.7114 16.7506
1 9.51934 14.9096 16.7437
1 11.1118 15.7134 17.5608
1 11.9055 14.9197 17.5608
1 11.9229 15.731 16.7436
1 11.1279 14.909 16.7847
1 12.6992 15.7134 17.5608
1 13.4929 14.9197 17.5608
1 13.4805 15.7045 16.7629
1 12.6866 14.9424 16.7787
1 14.2866 15.7134 17.5608
1 15.0803 14.9197 17.5608
1 15.0873 15.7495 16.7526
1 14.2854 14.9349 16.785
1 15.874 15.7134 17.5608
1 16.6677 14.9197 17.5608
1 16.6623 15.7276 16.7832
1 15.8657 14.9119 16.7805
1 17.4614 15.7134 17.5608
1 18.2551 14.9197 17.5608
1 18.2674 15.6983 16.755
1 17.4667 14.9516 16.7495
1 19.0488 15.7134 17.5608
1 19.8425 14.9197 17.5608
1 19.8294 15.7026 16.7692
1 19.0655 14.9091 16.7578
1 20.6362 15.7134 17.5608
1 21.4299 14.9197 17.5608
1 21.4447 15.6819 16.7708
1 20.6205 14.9015 16.7972
1 22.2236 15.7134 17.5608
1 23.0173 14.9197 17.5608
1 23.0162 15.7076 16.7595
1 22.2219 14.8897 16.7718
1 23.811 15.7134 17.5608
1 24.6047 14.9197 17.5608
1 24.5837 15.7002 16.7841
1 23.8073 14.9353 16.7727
1 25.3984 15.7134 17.5608
1 26.1921 14.9197 17.5608
1 26.1882 15.7167 16.8003
1 25.377 14.9265 16.7701
1 26.9858 15.7134 17.5608
1 27.7795 14.9197 17.5608
1 27.7506 15.7066 16.7496
1 26.9835 14.9207 16.7723
1 28.5732 15.7134 17.5608
1 29.3669 14.9197 17.5608
1 29.3009 15.7006 16.7491
1 28.5355 14.9116 16.7556
1 30 14.126 17.5608
1 0.793701 13.3323 17.5608
1 0.82263 14.1249 16.7918
1 0.0782345 13.31 16.7224
1 1.5874 14.126 17.5608
1 2.3811 13.3323 17.5608
1 2.39387 14.1236 16.7665
1 1.56568 13.3271 16.7603
1 3.1748 14.126 17.5608
1 3.9685 13.3323 17.5608
1 3.97656 14.1267 16.7384
1 3.1879 13.3402 16.7705
1 4.7622 14.126 17.5608
1 5.5559 13.3323 17.5608
1 5.57356 14.1253 16.7646
1 4.79075 13.3226 16.7541
1 6.3496 14.126 17.5608
1 7.1433 13.3323 17.5608
1 7.13205 14.1138 16.7395
1 6.36711 13.3658 16.777
1 7.93701 14.126 17.5608
1 8.73071 13.3323 17.5608
1 8.72081 14.1052 16.7639
1 7.94675 13.3488 16.7821
1 9.52441 14.126 17.5608
1 10.3181 13.3323 17.5608
1 10.3346 14.1335 16.7747
1 9.49842 13.342 16.755
1 11.1118 14.126 17.5608
1 11.9055 13.3323 17.5608
1 11.9263 14.1452 16.7829
1 11.0952 13.3411 16.7558
1 12.6992 14.126 17.5608
1 13.4929 13.3323 17.5608
1 13.4874 14.1288 16.7807
1 12.7026 13.3358 16.7661
1 14.2866 14.126 17.5608
1 15.0803 13.3323 17.5608
1 15.0986 14.1282 16.7708
1 14.3132 13.3653 16.7446
1 15.874 14.126 17.5608
1 16.6677 13.3323 17.5608
1 16.6641 14.1527 16.7484
1 15.8957 13.3302 16.7545
1 17.4614 14.126 17.5608
1 18.2551 13.3323 17.5608
1 18.2492 14.1285 16.7589
1 17.473 13.3299 16.7828
1 19.0488 14.126 17.5608
1 19.8425 13.3323 17.5608
1 19.8319 14.0948 16.7943
1 19.0456 13.3212 16.7614
1 20.6362 14.126 17.5608
1 21.4299 13.3323 17.5608
1 21.4251 14.1317 16.8044
1 20.6569 13.349 16.7842
1 22.2236 14.126 17.5608
1 23.0173 13.3323 17.5608
1 23.0135 14.1389 16.7702
1 22.2017 13.3132 16.7634
1 23.811 14.126 17.5608
1 24.6047 13.3323 17.5608
1 24.6148 14.1264 16.7798
1 23.8156 13.3398 16.7825
1 25.3984 14.126 17.5608
1 26.1921 13.3323 17.5608
1 26.1891 14.1072 16.7622
1 25.385 13.3345 16.7824
1 26.9858 14.126 17.5608
1 27.7795 13.3323 17.5608
1 27.7765 14.1259 16.7511
1 26.9679 13.3302 16.7659
1 28.5732 14.126 17.5608
1 29.3669 13.3323 17.5608
1 29.3228 14.1008 16.7333
1 28.5623 13.332 16.7433
1 30 12.5386 17.5608
1 0.793701 11.7449 17.5608
1 0.806775 12.497 16.7692
1 0.0403806 11.7559 16.7218
1 1.5874 12.5386 17.5608
1 2.3811 11.7449 17.5608
1 2.38785 12.5488 16.7856
1 1.63389 11.7522 16.7916
1 3.1748 12.5386 17.5608
1 3.9685 11.7449 17.5608
1 3.97778 12.5269 16.7585
1 3.16648 11.7327 16.799
1 4.7622 12.5386 17.5608
1 5.5559 11.7449 17.5608
1 5.55896 12.5393 16.7925
1 4.74839 11.7317 16.7764
1 6.3496 12.5386 17.5608
1 7.1433 11.7449 17.5608
1 7.13049 12.5432 16.752
1 6.36495 11.7391 16.7777
1 7.93701 12.5386 17.5608
1 8.73071 11.7449 17.5608
1 8.72656 12.5412 16.7404
1 7.95338 11.7505 16.755
1 9.52441 12.5386 17.5608
1 10.3181 11.7449 17.5608
1 10.2919 12.5395 16.7671
1 9.52565 11.7361 16.7618
1 11.1118 12.5386 17.5608
1 11.9055 11.7449 17.5608
1 11.8969 12.5587 16.7723
1 11.0976 11.7518 16.791
1 12.6992 12.5386 17.5608
1 13.4929 11.7449 17.5608
1 13.4903 12.5388 16.7546
1 12.6742 11.7744 16.7468
1 14.2866 12.5386 17.5608
1 15.0803 11.7449 17.5608
1 15.0887 12.5275 16.756
1 14.2669 11.7295 16.7902
1 15.874 12.5386 17.5608
1 16.6677 11.7449 17.5608
1 16.6862 12.5424 16.7665
1 15.8597 11.7485 16.7581
1 17.4614 12.5386 17.5608
1 18.2551 11.7449 17.5608
1 18.2674 12.5405 16.7538
1 17.4631 11.73 16.759
1 19.0488 12.5386 17.5608
1 19.8425 11.7449 17.5608
1 19.8387 12.5313 16.7559
1 19.0353 11.7272 16.7393
1 20.6362 12.5386 17.5608
1 21.4299 11.7449 17.5608
1 21.4238 12.5399 16.7522
1 20.6472 11.7621 16.7714
1 22.2236 12.5386 17.5608
1 23.0173 11.7449 17.5608
1 23.0162 12.5518 16.7594
1 22.2156 11.7429 16.7736
1 23.811 12.5386 17.5608
1 24.6047 11.7449 17.5608
1 24.5934 12.5389 16.764
1 23.8007 11.7269 16.7755
1 25.3984 12.5386 17.5608
1 26.1921 11.7449 17.5608
1 26.1792 12.5426 16.7826
1 25.382 11.7385 16.7695
1 26.9858 12.5386 17.5608
1 27.7795 11.7449 17.5608
1 27.7656 12.5454 16.7627
1 26.9834 11.7429 16.7752
1 28.5732 12.5386 17.5608
1 29.3669 11.7449 17.5608
1 29.2884 12.5395 16.7546
1 28.5364 11.7309 16.7404
1 30 10.9512 17.5608
1 0.793701 10.1575 17.5608
1 0.817304 10.9622 16.7761
1 0.0515636 10.1582 16.7386
1 1.5874 10.9512 17.5608
1 2.3811 10.1575 17.5608
1 2.40122 10.9392 16.779
1 1.60507 10.1456 16.7757
1 3.1748 10.9512 17.5608
1 3.9685 10.1575 17.5608
1 3.95319 10.9376 16.7733
1 3.18272 10.1267 16.7628
1 4.7622 10.9512 17.5608
1 5.5559 10.1575 17.5608
1 5.60446 10.9519 16.7738
1 4.74518 10.1684 16.7709
1 6.3496 10.9512 17.5608
1 7.1433 10.1575 17.5608
1 7.14195 10.9421 16.7757
1 6.35004 10.1546 16.7705
1 7.93701 10.9512 17.5608
1 8.73071 10.1575 17.5608
1 8.77133 10.936 16.7627
1 7.95333 10.1711 16.7745
1 9.52441 10.9512 17.5608
1 10.3181 10.1575 17.5608
1 10.3015 10.9397 16.7622
1 9.54142 10.1578 16.783
1 11.1118 10.9512 17.5608
1 11.9055 10.1575 17.5608
1 11.908 10.9704 16.7967
1 11.0923 10.154 16.7818
1 12.6992 10.9512 17.5608
1 13.4929 10.1575 17.5608
1 13.4713 10.9636 16.7793
1 12.7335 10.1388 16.7662
1 14.2866 10.9512 17.5608
1 15.0803 10.1575 17.5608
1 15.0723 10.9375 16.7572
1 14.2884 10.1467 16.7655
1 15.874 10.9512 17.5608
1 16.6677 10.1575 17.5608
1 16.6868 10.9694 16.7783
1 15.9057 10.1703 16.7845
1 17.4614 10.9512 17.5608
1 18.2551 10.1575 17.5608
1 18.2675 10.9264 16.7734
1 17.4461 10.1428 16.7753
1 19.0488 10.9512 17.5608
1 19.8425 10.1575 17.5608
1 19.8664 10.9363 16.7862
1 19.0744 10.1325 16.7664
1 20.6362 10.9512 17.5608
1 21.4299 10.1575 17.5608
1 21.4448 10.9477 16.7739
1 20.6393 10.1473 16.782
1 22.2236 10.9512 17.5608
1 23.0173 10.1575 17.5608
1 23.0237 10.9641 16.7464
1 22.2218 10.1754 16.7835
1 23.811 10.9512 17.5608
1 24.6047 10.1575 17.5608
1 24.6011 10.9321 16.7676
1 23.7904 10.1531 16.7684
1 25.3984 10.9512 17.5608
1 26.1921 10.1575 17.5608
1 26.2009 10.9524 16.7688
1 25.3924 10.1779 16.7789
1 26.9858 10.9512 17.5608
1 27.7795 10.1575 17.5608
1 27.7464 10.9574 16.776
1 26.9541 10.1696 16.7848
1 28.5732 10.9512 17.5608
1 29.3669 10.1575 17.5608
1 29.2752 10.9442 16.727
1 28.5142 10.1414 16.7629
1 30 9.36379 17.5608
1 0.793701 8.57009 17.5608
1 0.800181 9.37511 16.7745
1 0.0485408 8.57954 16.7178
1 1.5874 9.36379 17.5608
1 2.3811 8.57009 17.5608
1 2.39597 9.34379 16.7421
1 1.60916 8.55494 16.7918
1 3.1748 9.36379 17.5608
1 3.9685 8.57009 17.5608
1 3.97617 9.38713 16.7659
1 3.19531 8.56544 16.7691
1 4.7622 9.36379 17.5608
1 5.5559 8.57009 17.5608
1 5.53869 9.36523 16.7745
1 4.75611 8.59912 16.7886
1 6.3496 9.36379 17.5608
1 7.1433 8.57009 17.5608
1 7.13382 9.39018 16.761
1 6.35065 8.57126 16.7678
1 7.93701 9.36379 17.5608
1 8.73071 8.57009 17.5608
1 8.7299 9.34646 16.7463
1 7.93624 8.59163 16.7465
1 9.52441 9.36379 17.5608
1 10.3181 8.57009 17.5608
1 10.3228 9.36991 16.7648
1 9.52279 8.56734 16.7618
1 11.1118 9.36379 17.5608
1 11.9055 8.57009 17.5608
1 11.9118 9.3546 16.7873
1 11.1159 8.56922 16.7794
1 12.6992 9.36379 17.5608
1 13.4929 8.57009 17.5608
1 13.4874 9.35129 16.7735
1 12.7076 8.56304 16.7598
1 14.2866 9.36379 17.5608
1 15.0803 8.57009 17.5608
1 15.075 9.36231 16.7698
1 14.269 8.55626 16.7571
1 15.874 9.36379 17.5608
1 16.6677 8.57009 17.5608
1 16.6911 9.35343 16.7855
1 15.8673 8.57019 16.7824
1 17.4614 9.36379 17.5608
1 18.2551 8.57009 17.5608
1 18.2416 9.34214 16.7444
1 17.4509 8.55093 16.7992
1 19.0488 9.36379 17.5608
1 19.8425 8.57009 17.5608
1 19.8563 9.35072 16.7554
1 19.0577 8.55743 16.7767
1 20.6362 9.36379 17.5608
1 21.4299 8.57009 17.5608
1 21.4326 9.36 16.7801
1 20.6616 8.57431 16.7609
1 22.2236 9.36379 17.5608
1 23.0173 8.57009 17.5608
1 23.0199 9.37337 16.7695
1 22.2417 8.57753 16.7519
1 23.811 9.36379 17.5608
1 24.6047 8.57009 17.5608
1 24.6004 9.37848 16.7746
1 23.8225 8.596 16.7593
1 25.3984 9.36379 17.5608
1 26.1921 8.57009 17.5608
1 26.1712 9.3779 16.7645
1 25.3592 8.58825 16.7623
1 26.9858 9.36379 17.5608
1 27.7795 8.57009 17.5608
1 27.7622 9.36363 16.7797
1 26.9575 8.57034 16.7954
1 28.5732 9.36379 17.5608
1 29.3669 8.57009 17.5608
1 29.3199 9.36054 16.7405
1 28.5559 8.57055 16.7672
1 30 7.77639 17.5608
1 0.793701 6.98268 17.5608
1 0.823212 7.77132 16.7879
1 0.0584202 6.97673 16.7337
1 1.5874 7.77639 17.5608
1 2.3811 6.98268 17.5608
1 2.38717 7.78627 16.7758
1 1.61868 6.98622 16.7917
1 3.1748 7.77639 17.5608
1 3.9685 6.98268 17.5608
1 4.00055 7.79379 16.7702
1 3.18656 6.98162 16.75
1 4.7622 7.77639 17.5608
1 5.5559 6.98268 17.5608
1 5.56393 7.78992 16.7726
1 4.7711 6.9694 16.765
1 6.3496 7.77639 17.5608
1 7.1433 6.98268 17.5608
1 7.13419 7.77227 16.7682
1 6.32024 6.97683 16.7436
1 7.93701 7.77639 17.5608
1 8.73071 6.98268 17.5608
1 8.73479 7.74933 16.754
1 7.92579 6.98449 16.7711
1 9.52441 7.77639 17.5608
1 10.3181 6.98268 17.5608
1 10.34 7.78749 16.7709
1 9.54977 6.96664 16.7597
1 11.1118 7.77639 17.5608
1 11.9055 6.98268 17.5608
1 11.8908 7.78024 16.7658
1 11.0945 6.98499 16.767
1 12.6992 7.77639 17.5608
1 13.4929 6.98268 17.5608
1 13.4877 7.7912 16.7719
1 12.6568 7.00093 16.7815
1 14.2866 7.77639 17.5608
1 15.0803 6.98268 17.5608
1 15.1086 7.79134 16.7557
1 14.2715 7.03236 16.757
1 15.874 7.77639 17.5608
1 16.6677 6.98268 17.5608
1 16.6584 7.77661 16.7563
1 15.8574 6.97444 16.7694
1 17.4614 7.77639 17.5608
1 18.2551 6.98268 17.5608
1 18.2165 7.77675 16.7952
1 17.4386 6.96734 16.7459
1 19.0488 7.77639 17.5608
1 19.8425 6.98268 17.5608
1 19.8556 7.76221 16.7584
1 19.0365 7.00507 16.768
1 20.6362 7.77639 17.5608
1 21.4299 6.98268 17.5608
1 21.4614 7.78287 16.763
1 20.6516 6.99693 16.766
1 22.2236 7.77639 17.5608
1 23.0173 6.98268 17.5608
1 23.0309 7.78027 16.7619
1 22.2383 7.0093 16.7695
1 23.811 7.77639 17.5608
1 24.6047 6.98268 17.5608
1 24.588 7.79678 16.7745
1 23.8029 7.01267 16.7489
1 25.3984 7.77639 17.5608
1 26.1921 6.98268 17.5608
1 26.17 7.77686 16.7757
1 25.3727 6.94687 16.7687
1 26.9858 7.77639 17.5608
1 27.7795 6.98268 17.5608
1 27.7505 7.74597 16.7435
1 26.965 6.98221 16.7561
1 28.5732 7.77639 17.5608
1 29.3669 6.98268 17.5608
1 29.3116 7.79108 16.7356
1 28.5498 6.96705 16.7532
1 30 6.18898 17.5608
1 0.793701 5.39528 17.5608
1 0.822604 6.18531 16.7438
1 0.0472908 5.3983 16.7207
1 1.5874 6.18898 17.5608
1 2.3811 5.39528 17.5608
1 2.40244 6.1766 16.7414
1 1.5997 5.39147 16.7696
1 3.1748 6.18898 17.5608
1 3.9685 5.39528 17.5608
1 3.9811 6.16684 16.7527
1 3.17626 5.37519 16.7717
1 4.7622 6.18898 17.5608
1 5.5559 5.39528 17.5608
1 5.56856 6.1843 16.7554
1 4.75748 5.39268 16.7703
1 6.3496 6.18898 17.5608
1 7.1433 5.39528 17.5608
1 7.11125 6.20559 16.7506
1 6.35703 5.39452 16.768
1 7.93701 6.18898 17.5608
1 8.73071 5.39528 17.5608
1 8.74373 6.19217 16.7619
1 7.93111 5.3909 16.7882
1 9.52441 6.18898 17.5608