LAMMPS (5 Jun 2019)
OMP_NUM_THREADS environment is not set. Defaulting to 1 thread. (src/comm.cpp:88)
  using 1 OpenMP thread(s) per MPI task
#--- Brush Variables---#
variable      f      equal  1
variable      M      equal  $(v_f * 120)                 # The number of polymer chains on each brush
variable      M      equal  120                 
variable      N      string 30                 # The number of beads per chain
variable      xhi    equal  $(sqrt(v_f) * 40)                 # The width of the polymer Brush
variable      xhi    equal  40                 
variable      yhi    equal  $(sqrt(v_f) * 40)                 # The length of the polymer Brush
variable      yhi    equal  40                 
variable      wthick equal  3                  # The thickness of the walls wthick=1,2,3,4 gives 2,3,4,6 layers respectively

#--- Simulation Variables ---#
variable       Temp      index 1        #0.8 1 1.68                 #[Grest96]
variable       Tstep     equal 0.005                       # Timestep in Tau (default = 0.005)
variable       Nequil    equal 300000                       # Number of timesteps to equilibrate
variable       Ncomp     equal 700000                     # Number of timesteps to compress - until no more occilation of walls
variable       Nshear    equal 4000000      #2000000                      # Number of timesteps to shear - use approx 4ns for 10m/s
variable       Nthermo   equal 1000                        # Number of timesteps between thermo data prints
variable       Ndump_e   equal 10000
variable       Ndump_c   equal 10000                      # Number of timesteps per dump file (compression)
variable       Ndump_s   equal 10000                       # Number of timesteps per dump file (shear)
variable       Wall_vi   index 0.01 0.1 0.2 0.4 0.6 0.8 1 1.2 1.4 1.6 1.8 2                   # Wall velocity (A/fs) - equal to 10 m/s
variable       Pcomp     index 1 # 0.5 2 0.05 4 8
variable       Wall_v    equal $(v_Wall_vi * 0.00000001)        #Added to try scale down the strain rates (10^-8)
variable       Wall_v    equal 1.0000000000000000364e-10        

include        MDPBB.in
# This is an input script that creates a mono disperse polymer brush bilayer
# A coarse grained bead-spring model is used for the polymers which are end
# grafted to the surfaces of 2 opposing FCC walls at random sites.

#--- Initialization ---#

dimension     3
boundary      p p f
units         lj
atom_style    bond


#--- Moved to main.in ---#
#variable      M      equal  50                # The number of polymer chains on each brush
#variable      N      string 80                # The number of beads per chain
#variable      xhi    equal  15                # The width of the polymer Brush
#variable      yhi    equal  20                # The length of the polymer Brush
#variable      wthick equal  3                 # The thickness of the walls wthick=1,2,3,4 gives 2,3,4,6 layers respectively

variable      zhi    equal  $(1.1 * 2 * v_N + (2 * v_wthick))  # The initial height of the simulation box the value is such that no overlaps occur
variable      zhi    equal  72  
variable      z0     equal  $((v_zhi)/4 - (v_N)/30)          # This is the location at which to place the CoM of the molecule
variable      z0     equal  17          

print "The number of grafted chains = $(v_M)"
The number of grafted chains = 120
print "The number of beads per chain = $(v_N)"
The number of beads per chain = 30

variable      check  equal count(all)         # The number of atoms in the system
variable      ntwall equal count(twall)       # The number of atoms in the top wall
variable      nbwall equal count(bwall)       # The number of atoms in the bottom wall
variable      s equal 234897  #45335              # Seed for the RNG

print "zhi = ${zhi}"
zhi = 72

#--- Create the simulation box ---#

region        sbox block 0 ${xhi} 0 ${yhi} 0 ${zhi}
region        sbox block 0 40 0 ${yhi} 0 ${zhi}
region        sbox block 0 40 0 40 0 ${zhi}
region        sbox block 0 40 0 40 0 72
create_box    4 sbox bond/types 3 extra/bond/per/atom 12 extra/special/per/atom 2
Created orthogonal box = (0 0 0) to (40 40 72)
  1 by 1 by 1 MPI processor grid

mass          1 2.0                   # Wall atoms that are not grafted
mass          2 1.0                   # Grafted bead
mass          3 1.0                   # The rest of the beads on the chain
mass          4 2.0                   # Wall atoms that the chains are grafted to

bond_style    hybrid fene harmonic    # Finitely extensible linearly elastic bond between neighbouring beads
#bond_coeff    1 fene 30.0 1.5 0.0 0.0      # Values obtained from literature [Grest, Galushcko]
bond_coeff    1 fene 30.0 30.0 0.0 0.0
bond_coeff    2 fene 30.0 30.0 0.0 0.0       # This is the grafting bond between the polymer and the wall atom
special_bonds fene                    #
  0 = max # of 1-2 neighbors
  5 = max # of special neighbors
  special bonds CPU = 0.0002657 secs
pair_style	  lj/cut 1.122462         # LJ potential with rc=2^1/6
#pair_coeff	  * * 1.0 1.0             # LJ potential acts between all atoms
pair_coeff    1 1 0.0 0.0
pair_coeff    1 2 1.0 1.0
pair_coeff    1 3 1.0 1.0
pair_coeff    2 2 1.0 1.0
pair_coeff    2 3 1.0 1.0
pair_coeff    2 4 1.0 1.0
pair_coeff    3 3 1.0 1.0
pair_coeff    3 4 1.0 1.0
pair_coeff    4 4 0.0 0.0
neighbor      10 bin                  #
neigh_modify  one 4000

#--- Create and read the molecule file ---#
python        BSMolf input 1 $N format i file BSMolf.py
python        BSMolf input 1 30 format i file BSMolf.py
python        BSMolf invoke    # Call the python function with number of beads to write the mol file
molecule      bs     bsmol.txt     # Read the Mol file to define the polymer chain
Read molecule bs:
  30 atoms with max type 2
  29 bonds with max type 1
  0 angles with max type 0
  0 dihedrals with max type 0
  0 impropers with max type 0

#--- Define the FCC wall region ---#
region        wall  block 0 ${xhi} 0 ${yhi} 0 ${wthick}
region        wall  block 0 40 0 ${yhi} 0 ${wthick}
region        wall  block 0 40 0 40 0 ${wthick}
region        wall  block 0 40 0 40 0 3
lattice       fcc 1
Lattice spacing in x,y,z = 1.5874 1.5874 1.5874

#--- Create the Top Brush  (At the bottom then rotate 180 degrees to top) ---#

create_atoms  1 region wall
Created 5202 atoms
  create_atoms CPU = 0.0020036 secs
group         twall  region wall
5202 atoms in group twall
#group         tsurf  region wsurf

# A loop to insert the Chains into the sim box
variable      i loop $M                                   # Index to insert N total number of chains
variable      i loop 120                                   
label         loop                                        # Start of loop
variable      randni equal round(random(1,${ntwall},$s))  # Pick a random "top" wall atom
variable      randni equal round(random(1,5202,$s))  
variable      randni equal round(random(1,5202,234897))  
variable      randatomi equal ${randni}                   # This is to obtain an integer number for atom-id
variable      randatomi equal 3268                   
variable      randzi equal z[${randatomi}]                # Determine the z coordinate of the chosen atom
variable      randzi equal z[3268]                
# if the chosen atom is not a surface atom then restart the loop
if            "${randzi} < $(v_wthick - 0.7)" then "jump MDPBB.in loop"
set           atom ${randatomi} type 4                    # Set this grafted wall atom as a new type
set           atom 3268 type 4                    
  1 settings made for type
group         twg id ${randatomi}                         # Add this atom to a top-wall-grafted group
group         twg id 3268                         
1 atoms in group twg
variable      twgcount equal count(twg)
print         "twg contains ${twgcount}"
twg contains 1
print         "i = $(v_i)"                                # The index i should always be equal to the number of atom in twg
i = 1
variable      x0 equal x[${randatomi}]                    # Determine its x-coord
variable      x0 equal x[3268]                    
variable      y0 equal y[${randatomi}]                    # Determine its y-coord
variable      y0 equal y[3268]                    
variable      check0 equal ${check}                       # Count the number of atoms in the simulation
variable      check0 equal 5202                       
variable      b equal ${check}+1                          # The grafted bead id will be one higher after being inserted
variable      b equal 5202+1                          
if            "${twgcount} != $(v_i)" then "jump MDPBB.in loop"
# Otherwise insert the chain directly above the chosen wall atom pointing perpendicular to the wall
create_atoms  1 single ${x0} ${y0} ${z0} mol bs 24987 units box remap yes rotate 0 0 0 1
create_atoms  1 single 21.4299142015707 ${y0} ${z0} mol bs 24987 units box remap yes rotate 0 0 0 1
create_atoms  1 single 21.4299142015707 9.5244063118092 ${z0} mol bs 24987 units box remap yes rotate 0 0 0 1
create_atoms  1 single 21.4299142015707 9.5244063118092 17 mol bs 24987 units box remap yes rotate 0 0 0 1
Created 30 atoms
  create_atoms CPU = 0.0002383 secs
variable      check1 equal ${check}               # Count the new total number of atoms
variable      check1 equal 5232               
# Check that the molecule has indeed been inserted (This check is no longer an issue).
if            "${check1} != ${check0}" then "create_bonds  single/bond 2 ${randatomi} $b" "next i"
create_bonds  single/bond 2 ${randatomi} $b
create_bonds  single/bond 2 3268 $b
create_bonds  single/bond 2 3268 5203
  2 = max # of 1-2 neighbors
  5 = max # of special neighbors
  special bonds CPU = 0.0026623 secs
next i
jump MDPBB.in loop    # End of the loop
variable      randni equal round(random(1,${ntwall},$s))  # Pick a random "top" wall atom
variable      randni equal round(random(1,5202,$s))  
variable      randni equal round(random(1,5202,234897))  
variable      randatomi equal ${randni}                   # This is to obtain an integer number for atom-id
variable      randatomi equal 818                   
variable      randzi equal z[${randatomi}]                # Determine the z coordinate of the chosen atom
variable      randzi equal z[818]                
# if the chosen atom is not a surface atom then restart the loop
if            "${randzi} < $(v_wthick - 0.7)" then "jump MDPBB.in loop"
jump MDPBB.in loop
variable      randni equal round(random(1,${ntwall},$s))  # Pick a random "top" wall atom
variable      randni equal round(random(1,5202,$s))  
variable      randni equal round(random(1,5202,234897))  
variable      randatomi equal ${randni}                   # This is to obtain an integer number for atom-id
variable      randatomi equal 3930                   
variable      randzi equal z[${randatomi}]                # Determine the z coordinate of the chosen atom
variable      randzi equal z[3930]                
# if the chosen atom is not a surface atom then restart the loop
if            "${randzi} < $(v_wthick - 0.7)" then "jump MDPBB.in loop"
set           atom ${randatomi} type 4                    # Set this grafted wall atom as a new type
set           atom 3930 type 4                    
  1 settings made for type
group         twg id ${randatomi}                         # Add this atom to a top-wall-grafted group
group         twg id 3930                         
2 atoms in group twg
variable      twgcount equal count(twg)
print         "twg contains ${twgcount}"
twg contains 2
print         "i = $(v_i)"                                # The index i should always be equal to the number of atom in twg
i = 2
variable      x0 equal x[${randatomi}]                    # Determine its x-coord
variable      x0 equal x[3930]                    
variable      y0 equal y[${randatomi}]                    # Determine its y-coord
variable      y0 equal y[3930]                    
variable      check0 equal ${check}                       # Count the number of atoms in the simulation
variable      check0 equal 5232                       
variable      b equal ${check}+1                          # The grafted bead id will be one higher after being inserted
variable      b equal 5232+1                          
if            "${twgcount} != $(v_i)" then "jump MDPBB.in loop"
# Otherwise insert the chain directly above the chosen wall atom pointing perpendicular to the wall
create_atoms  1 single ${x0} ${y0} ${z0} mol bs 24987 units box remap yes rotate 0 0 0 1
create_atoms  1 single 0.7937005259841 ${y0} ${z0} mol bs 24987 units box remap yes rotate 0 0 0 1
create_atoms  1 single 0.7937005259841 20.6362136755866 ${z0} mol bs 24987 units box remap yes rotate 0 0 0 1
create_atoms  1 single 0.7937005259841 20.6362136755866 17 mol bs 24987 units box remap yes rotate 0 0 0 1
Created 30 atoms
  create_atoms CPU = 9.7e-05 secs
variable      check1 equal ${check}               # Count the new total number of atoms
variable      check1 equal 5262               
# Check that the molecule has indeed been inserted (This check is no longer an issue).
if            "${check1} != ${check0}" then "create_bonds  single/bond 2 ${randatomi} $b" "next i"
create_bonds  single/bond 2 ${randatomi} $b
create_bonds  single/bond 2 3930 $b
create_bonds  single/bond 2 3930 5233
  2 = max # of 1-2 neighbors
  5 = max # of special neighbors
  special bonds CPU = 0.0027736 secs
next i
jump MDPBB.in loop    # End of the loop
variable      randni equal round(random(1,${ntwall},$s))  # Pick a random "top" wall atom
variable      randni equal round(random(1,5202,$s))  
variable      randni equal round(random(1,5202,234897))  
variable      randatomi equal ${randni}                   # This is to obtain an integer number for atom-id
variable      randatomi equal 3965                   
variable      randzi equal z[${randatomi}]                # Determine the z coordinate of the chosen atom
variable      randzi equal z[3965]                
# if the chosen atom is not a surface atom then restart the loop
if            "${randzi} < $(v_wthick - 0.7)" then "jump MDPBB.in loop"
jump MDPBB.in loop
variable      randni equal round(random(1,${ntwall},$s))  # Pick a random "top" wall atom
variable      randni equal round(random(1,5202,$s))  
variable      randni equal round(random(1,5202,234897))  
variable      randatomi equal ${randni}                   # This is to obtain an integer number for atom-id
variable      randatomi equal 3779                   
variable      randzi equal z[${randatomi}]                # Determine the z coordinate of the chosen atom
variable      randzi equal z[3779]                
# if the chosen atom is not a surface atom then restart the loop
if            "${randzi} < $(v_wthick - 0.7)" then "jump MDPBB.in loop"
set           atom ${randatomi} type 4                    # Set this grafted wall atom as a new type
set           atom 3779 type 4                    
  1 settings made for type
group         twg id ${randatomi}                         # Add this atom to a top-wall-grafted group
group         twg id 3779                         
3 atoms in group twg
variable      twgcount equal count(twg)
print         "twg contains ${twgcount}"
twg contains 3
print         "i = $(v_i)"                                # The index i should always be equal to the number of atom in twg
i = 3
variable      x0 equal x[${randatomi}]                    # Determine its x-coord
variable      x0 equal x[3779]                    
variable      y0 equal y[${randatomi}]                    # Determine its y-coord
variable      y0 equal y[3779]                    
variable      check0 equal ${check}                       # Count the number of atoms in the simulation
variable      check0 equal 5262                       
variable      b equal ${check}+1                          # The grafted bead id will be one higher after being inserted
variable      b equal 5262+1                          
if            "${twgcount} != $(v_i)" then "jump MDPBB.in loop"
# Otherwise insert the chain directly above the chosen wall atom pointing perpendicular to the wall
create_atoms  1 single ${x0} ${y0} ${z0} mol bs 24987 units box remap yes rotate 0 0 0 1
create_atoms  1 single 20.6362136755866 ${y0} ${z0} mol bs 24987 units box remap yes rotate 0 0 0 1
create_atoms  1 single 20.6362136755866 18.2551120976343 ${z0} mol bs 24987 units box remap yes rotate 0 0 0 1
create_atoms  1 single 20.6362136755866 18.2551120976343 17 mol bs 24987 units box remap yes rotate 0 0 0 1
Created 30 atoms
  create_atoms CPU = 0.0001265 secs
variable      check1 equal ${check}               # Count the new total number of atoms
variable      check1 equal 5292               
# Check that the molecule has indeed been inserted (This check is no longer an issue).
if            "${check1} != ${check0}" then "create_bonds  single/bond 2 ${randatomi} $b" "next i"
create_bonds  single/bond 2 ${randatomi} $b
create_bonds  single/bond 2 3779 $b
create_bonds  single/bond 2 3779 5263
  2 = max # of 1-2 neighbors
  5 = max # of special neighbors
  special bonds CPU = 0.003202 secs
next i
jump MDPBB.in loop    # End of the loop
variable      randni equal round(random(1,${ntwall},$s))  # Pick a random "top" wall atom
variable      randni equal round(random(1,5202,$s))  
variable      randni equal round(random(1,5202,234897))  
variable      randatomi equal ${randni}                   # This is to obtain an integer number for atom-id
variable      randatomi equal 5125                   
variable      randzi equal z[${randatomi}]                # Determine the z coordinate of the chosen atom
variable      randzi equal z[5125]                
# if the chosen atom is not a surface atom then restart the loop
if            "${randzi} < $(v_wthick - 0.7)" then "jump MDPBB.in loop"
set           atom ${randatomi} type 4                    # Set this grafted wall atom as a new type
set           atom 5125 type 4                    
  1 settings made for type
group         twg id ${randatomi}                         # Add this atom to a top-wall-grafted group
group         twg id 5125                         
4 atoms in group twg
variable      twgcount equal count(twg)
print         "twg contains ${twgcount}"
twg contains 4
print         "i = $(v_i)"                                # The index i should always be equal to the number of atom in twg
i = 4
variable      x0 equal x[${randatomi}]                    # Determine its x-coord
variable      x0 equal x[5125]                    
variable      y0 equal y[${randatomi}]                    # Determine its y-coord
variable      y0 equal y[5125]                    
variable      check0 equal ${check}                       # Count the number of atoms in the simulation
variable      check0 equal 5292                       
variable      b equal ${check}+1                          # The grafted bead id will be one higher after being inserted
variable      b equal 5292+1                          
if            "${twgcount} != $(v_i)" then "jump MDPBB.in loop"
# Otherwise insert the chain directly above the chosen wall atom pointing perpendicular to the wall
create_atoms  1 single ${x0} ${y0} ${z0} mol bs 24987 units box remap yes rotate 0 0 0 1
create_atoms  1 single 28.5732189354276 ${y0} ${z0} mol bs 24987 units box remap yes rotate 0 0 0 1
create_atoms  1 single 28.5732189354276 38.8913257732209 ${z0} mol bs 24987 units box remap yes rotate 0 0 0 1
create_atoms  1 single 28.5732189354276 38.8913257732209 17 mol bs 24987 units box remap yes rotate 0 0 0 1
Created 30 atoms
  create_atoms CPU = 0.0001246 secs
variable      check1 equal ${check}               # Count the new total number of atoms
variable      check1 equal 5322               
# Check that the molecule has indeed been inserted (This check is no longer an issue).
if            "${check1} != ${check0}" then "create_bonds  single/bond 2 ${randatomi} $b" "next i"
create_bonds  single/bond 2 ${randatomi} $b
create_bonds  single/bond 2 5125 $b
create_bonds  single/bond 2 5125 5293
  2 = max # of 1-2 neighbors
  5 = max # of special neighbors
  special bonds CPU = 0.0025123 secs
next i
jump MDPBB.in loop    # End of the loop
variable      randni equal round(random(1,${ntwall},$s))  # Pick a random "top" wall atom
variable      randni equal round(random(1,5202,$s))  
variable      randni equal round(random(1,5202,234897))  
variable      randatomi equal ${randni}                   # This is to obtain an integer number for atom-id
variable      randatomi equal 2473                   
variable      randzi equal z[${randatomi}]                # Determine the z coordinate of the chosen atom
variable      randzi equal z[2473]                
# if the chosen atom is not a surface atom then restart the loop
if            "${randzi} < $(v_wthick - 0.7)" then "jump MDPBB.in loop"
jump MDPBB.in loop
variable      randni equal round(random(1,${ntwall},$s))  # Pick a random "top" wall atom
variable      randni equal round(random(1,5202,$s))  
variable      randni equal round(random(1,5202,234897))  
variable      randatomi equal ${randni}                   # This is to obtain an integer number for atom-id
variable      randatomi equal 1743                   
variable      randzi equal z[${randatomi}]                # Determine the z coordinate of the chosen atom
variable      randzi equal z[1743]                
# if the chosen atom is not a surface atom then restart the loop
if            "${randzi} < $(v_wthick - 0.7)" then "jump MDPBB.in loop"
jump MDPBB.in loop
variable      randni equal round(random(1,${ntwall},$s))  # Pick a random "top" wall atom
variable      randni equal round(random(1,5202,$s))  
variable      randni equal round(random(1,5202,234897))  
variable      randatomi equal ${randni}                   # This is to obtain an integer number for atom-id
variable      randatomi equal 2250                   
variable      randzi equal z[${randatomi}]                # Determine the z coordinate of the chosen atom
variable      randzi equal z[2250]                
# if the chosen atom is not a surface atom then restart the loop
if            "${randzi} < $(v_wthick - 0.7)" then "jump MDPBB.in loop"
jump MDPBB.in loop
variable      randni equal round(random(1,${ntwall},$s))  # Pick a random "top" wall atom
variable      randni equal round(random(1,5202,$s))  
variable      randni equal round(random(1,5202,234897))  
variable      randatomi equal ${randni}                   # This is to obtain an integer number for atom-id
variable      randatomi equal 3765                   
variable      randzi equal z[${randatomi}]                # Determine the z coordinate of the chosen atom
variable      randzi equal z[3765]                
# if the chosen atom is not a surface atom then restart the loop
if            "${randzi} < $(v_wthick - 0.7)" then "jump MDPBB.in loop"
jump MDPBB.in loop
variable      randni equal round(random(1,${ntwall},$s))  # Pick a random "top" wall atom
variable      randni equal round(random(1,5202,$s))  
variable      randni equal round(random(1,5202,234897))  
variable      randatomi equal ${randni}                   # This is to obtain an integer number for atom-id
variable      randatomi equal 4657                   
variable      randzi equal z[${randatomi}]                # Determine the z coordinate of the chosen atom
variable      randzi equal z[4657]                
# if the chosen atom is not a surface atom then restart the loop
if            "${randzi} < $(v_wthick - 0.7)" then "jump MDPBB.in loop"
set           atom ${randatomi} type 4                    # Set this grafted wall atom as a new type
set           atom 4657 type 4                    
  1 settings made for type
group         twg id ${randatomi}                         # Add this atom to a top-wall-grafted group
group         twg id 4657                         
5 atoms in group twg
variable      twgcount equal count(twg)
print         "twg contains ${twgcount}"
twg contains 5
print         "i = $(v_i)"                                # The index i should always be equal to the number of atom in twg
i = 5
variable      x0 equal x[${randatomi}]                    # Determine its x-coord
variable      x0 equal x[4657]                    
variable      y0 equal y[${randatomi}]                    # Determine its y-coord
variable      y0 equal y[4657]                    
variable      check0 equal ${check}                       # Count the number of atoms in the simulation
variable      check0 equal 5322                       
variable      b equal ${check}+1                          # The grafted bead id will be one higher after being inserted
variable      b equal 5322+1                          
if            "${twgcount} != $(v_i)" then "jump MDPBB.in loop"
# Otherwise insert the chain directly above the chosen wall atom pointing perpendicular to the wall
create_atoms  1 single ${x0} ${y0} ${z0} mol bs 24987 units box remap yes rotate 0 0 0 1
create_atoms  1 single 4.7622031559046 ${y0} ${z0} mol bs 24987 units box remap yes rotate 0 0 0 1
create_atoms  1 single 4.7622031559046 32.5417215653481 ${z0} mol bs 24987 units box remap yes rotate 0 0 0 1
create_atoms  1 single 4.7622031559046 32.5417215653481 17 mol bs 24987 units box remap yes rotate 0 0 0 1
Created 30 atoms
  create_atoms CPU = 0.000101 secs
variable      check1 equal ${check}               # Count the new total number of atoms
variable      check1 equal 5352               
# Check that the molecule has indeed been inserted (This check is no longer an issue).
if            "${check1} != ${check0}" then "create_bonds  single/bond 2 ${randatomi} $b" "next i"
create_bonds  single/bond 2 ${randatomi} $b
create_bonds  single/bond 2 4657 $b
create_bonds  single/bond 2 4657 5323
  2 = max # of 1-2 neighbors
  5 = max # of special neighbors
  special bonds CPU = 0.0047684 secs
next i
jump MDPBB.in loop    # End of the loop
variable      randni equal round(random(1,${ntwall},$s))  # Pick a random "top" wall atom
variable      randni equal round(random(1,5202,$s))  
variable      randni equal round(random(1,5202,234897))  
variable      randatomi equal ${randni}                   # This is to obtain an integer number for atom-id
variable      randatomi equal 38                   
variable      randzi equal z[${randatomi}]                # Determine the z coordinate of the chosen atom
variable      randzi equal z[38]                
# if the chosen atom is not a surface atom then restart the loop
if            "${randzi} < $(v_wthick - 0.7)" then "jump MDPBB.in loop"
jump MDPBB.in loop
variable      randni equal round(random(1,${ntwall},$s))  # Pick a random "top" wall atom
variable      randni equal round(random(1,5202,$s))  
variable      randni equal round(random(1,5202,234897))  
variable      randatomi equal ${randni}                   # This is to obtain an integer number for atom-id
variable      randatomi equal 990                   
variable      randzi equal z[${randatomi}]                # Determine the z coordinate of the chosen atom
variable      randzi equal z[990]                
# if the chosen atom is not a surface atom then restart the loop
if            "${randzi} < $(v_wthick - 0.7)" then "jump MDPBB.in loop"
jump MDPBB.in loop
variable      randni equal round(random(1,${ntwall},$s))  # Pick a random "top" wall atom
variable      randni equal round(random(1,5202,$s))  
variable      randni equal round(random(1,5202,234897))  
variable      randatomi equal ${randni}                   # This is to obtain an integer number for atom-id
variable      randatomi equal 1700                   
variable      randzi equal z[${randatomi}]                # Determine the z coordinate of the chosen atom
variable      randzi equal z[1700]                
# if the chosen atom is not a surface atom then restart the loop
if            "${randzi} < $(v_wthick - 0.7)" then "jump MDPBB.in loop"
jump MDPBB.in loop
variable      randni equal round(random(1,${ntwall},$s))  # Pick a random "top" wall atom
variable      randni equal round(random(1,5202,$s))  
variable      randni equal round(random(1,5202,234897))  
variable      randatomi equal ${randni}                   # This is to obtain an integer number for atom-id
variable      randatomi equal 4214                   
variable      randzi equal z[${randatomi}]                # Determine the z coordinate of the chosen atom
variable      randzi equal z[4214]                
# if the chosen atom is not a surface atom then restart the loop
if            "${randzi} < $(v_wthick - 0.7)" then "jump MDPBB.in loop"
set           atom ${randatomi} type 4                    # Set this grafted wall atom as a new type
set           atom 4214 type 4                    
  1 settings made for type
group         twg id ${randatomi}                         # Add this atom to a top-wall-grafted group
group         twg id 4214                         
6 atoms in group twg
variable      twgcount equal count(twg)
print         "twg contains ${twgcount}"
twg contains 6
print         "i = $(v_i)"                                # The index i should always be equal to the number of atom in twg
i = 6
variable      x0 equal x[${randatomi}]                    # Determine its x-coord
variable      x0 equal x[4214]                    
variable      y0 equal y[${randatomi}]                    # Determine its y-coord
variable      y0 equal y[4214]                    
variable      check0 equal ${check}                       # Count the number of atoms in the simulation
variable      check0 equal 5352                       
variable      b equal ${check}+1                          # The grafted bead id will be one higher after being inserted
variable      b equal 5352+1                          
if            "${twgcount} != $(v_i)" then "jump MDPBB.in loop"
# Otherwise insert the chain directly above the chosen wall atom pointing perpendicular to the wall
create_atoms  1 single ${x0} ${y0} ${z0} mol bs 24987 units box remap yes rotate 0 0 0 1
create_atoms  1 single 32.5417215653481 ${y0} ${z0} mol bs 24987 units box remap yes rotate 0 0 0 1
create_atoms  1 single 32.5417215653481 23.811015779523 ${z0} mol bs 24987 units box remap yes rotate 0 0 0 1
create_atoms  1 single 32.5417215653481 23.811015779523 17 mol bs 24987 units box remap yes rotate 0 0 0 1
Created 30 atoms
  create_atoms CPU = 0.0001373 secs
variable      check1 equal ${check}               # Count the new total number of atoms
variable      check1 equal 5382               
# Check that the molecule has indeed been inserted (This check is no longer an issue).
if            "${check1} != ${check0}" then "create_bonds  single/bond 2 ${randatomi} $b" "next i"
create_bonds  single/bond 2 ${randatomi} $b
create_bonds  single/bond 2 4214 $b
create_bonds  single/bond 2 4214 5353
  2 = max # of 1-2 neighbors
  5 = max # of special neighbors
  special bonds CPU = 0.0030928 secs
next i
jump MDPBB.in loop    # End of the loop
variable      randni equal round(random(1,${ntwall},$s))  # Pick a random "top" wall atom
variable      randni equal round(random(1,5202,$s))  
variable      randni equal round(random(1,5202,234897))  
variable      randatomi equal ${randni}                   # This is to obtain an integer number for atom-id
variable      randatomi equal 3691                   
variable      randzi equal z[${randatomi}]                # Determine the z coordinate of the chosen atom
variable      randzi equal z[3691]                
# if the chosen atom is not a surface atom then restart the loop
if            "${randzi} < $(v_wthick - 0.7)" then "jump MDPBB.in loop"
jump MDPBB.in loop
variable      randni equal round(random(1,${ntwall},$s))  # Pick a random "top" wall atom
variable      randni equal round(random(1,5202,$s))  
variable      randni equal round(random(1,5202,234897))  
variable      randatomi equal ${randni}                   # This is to obtain an integer number for atom-id
variable      randatomi equal 3583                   
variable      randzi equal z[${randatomi}]                # Determine the z coordinate of the chosen atom
variable      randzi equal z[3583]                
# if the chosen atom is not a surface atom then restart the loop
if            "${randzi} < $(v_wthick - 0.7)" then "jump MDPBB.in loop"
set           atom ${randatomi} type 4                    # Set this grafted wall atom as a new type
set           atom 3583 type 4                    
  1 settings made for type
group         twg id ${randatomi}                         # Add this atom to a top-wall-grafted group
group         twg id 3583                         
7 atoms in group twg
variable      twgcount equal count(twg)
print         "twg contains ${twgcount}"
twg contains 7
print         "i = $(v_i)"                                # The index i should always be equal to the number of atom in twg
i = 7
variable      x0 equal x[${randatomi}]                    # Determine its x-coord
variable      x0 equal x[3583]                    
variable      y0 equal y[${randatomi}]                    # Determine its y-coord
variable      y0 equal y[3583]                    
variable      check0 equal ${check}                       # Count the number of atoms in the simulation
variable      check0 equal 5382                       
variable      b equal ${check}+1                          # The grafted bead id will be one higher after being inserted
variable      b equal 5382+1                          
if            "${twgcount} != $(v_i)" then "jump MDPBB.in loop"
# Otherwise insert the chain directly above the chosen wall atom pointing perpendicular to the wall
create_atoms  1 single ${x0} ${y0} ${z0} mol bs 24987 units box remap yes rotate 0 0 0 1
create_atoms  1 single 23.811015779523 ${y0} ${z0} mol bs 24987 units box remap yes rotate 0 0 0 1
create_atoms  1 single 23.811015779523 15.0803099936979 ${z0} mol bs 24987 units box remap yes rotate 0 0 0 1
create_atoms  1 single 23.811015779523 15.0803099936979 17 mol bs 24987 units box remap yes rotate 0 0 0 1
Created 30 atoms
  create_atoms CPU = 0.0001007 secs
variable      check1 equal ${check}               # Count the new total number of atoms
variable      check1 equal 5412               
# Check that the molecule has indeed been inserted (This check is no longer an issue).
if            "${check1} != ${check0}" then "create_bonds  single/bond 2 ${randatomi} $b" "next i"
create_bonds  single/bond 2 ${randatomi} $b
create_bonds  single/bond 2 3583 $b
create_bonds  single/bond 2 3583 5383
  2 = max # of 1-2 neighbors
  5 = max # of special neighbors
  special bonds CPU = 0.0022564 secs
next i
jump MDPBB.in loop    # End of the loop
variable      randni equal round(random(1,${ntwall},$s))  # Pick a random "top" wall atom
variable      randni equal round(random(1,5202,$s))  
variable      randni equal round(random(1,5202,234897))  
variable      randatomi equal ${randni}                   # This is to obtain an integer number for atom-id
variable      randatomi equal 2905                   
variable      randzi equal z[${randatomi}]                # Determine the z coordinate of the chosen atom
variable      randzi equal z[2905]                
# if the chosen atom is not a surface atom then restart the loop
if            "${randzi} < $(v_wthick - 0.7)" then "jump MDPBB.in loop"
set           atom ${randatomi} type 4                    # Set this grafted wall atom as a new type
set           atom 2905 type 4                    
  1 settings made for type
group         twg id ${randatomi}                         # Add this atom to a top-wall-grafted group
group         twg id 2905                         
8 atoms in group twg
variable      twgcount equal count(twg)
print         "twg contains ${twgcount}"
twg contains 8
print         "i = $(v_i)"                                # The index i should always be equal to the number of atom in twg
i = 8
variable      x0 equal x[${randatomi}]                    # Determine its x-coord
variable      x0 equal x[2905]                    
variable      y0 equal y[${randatomi}]                    # Determine its y-coord
variable      y0 equal y[2905]                    
variable      check0 equal ${check}                       # Count the number of atoms in the simulation
variable      check0 equal 5412                       
variable      b equal ${check}+1                          # The grafted bead id will be one higher after being inserted
variable      b equal 5412+1                          
if            "${twgcount} != $(v_i)" then "jump MDPBB.in loop"
# Otherwise insert the chain directly above the chosen wall atom pointing perpendicular to the wall
create_atoms  1 single ${x0} ${y0} ${z0} mol bs 24987 units box remap yes rotate 0 0 0 1
create_atoms  1 single 38.0976252472368 ${y0} ${z0} mol bs 24987 units box remap yes rotate 0 0 0 1
create_atoms  1 single 38.0976252472368 3.9685026299205 ${z0} mol bs 24987 units box remap yes rotate 0 0 0 1
create_atoms  1 single 38.0976252472368 3.9685026299205 17 mol bs 24987 units box remap yes rotate 0 0 0 1
Created 30 atoms
  create_atoms CPU = 9.9e-05 secs
variable      check1 equal ${check}               # Count the new total number of atoms
variable      check1 equal 5442               
# Check that the molecule has indeed been inserted (This check is no longer an issue).
if            "${check1} != ${check0}" then "create_bonds  single/bond 2 ${randatomi} $b" "next i"
create_bonds  single/bond 2 ${randatomi} $b
create_bonds  single/bond 2 2905 $b
create_bonds  single/bond 2 2905 5413
  2 = max # of 1-2 neighbors
  5 = max # of special neighbors
  special bonds CPU = 0.0041879 secs
next i
jump MDPBB.in loop    # End of the loop
variable      randni equal round(random(1,${ntwall},$s))  # Pick a random "top" wall atom
variable      randni equal round(random(1,5202,$s))  
variable      randni equal round(random(1,5202,234897))  
variable      randatomi equal ${randni}                   # This is to obtain an integer number for atom-id
variable      randatomi equal 4052                   
variable      randzi equal z[${randatomi}]                # Determine the z coordinate of the chosen atom
variable      randzi equal z[4052]                
# if the chosen atom is not a surface atom then restart the loop
if            "${randzi} < $(v_wthick - 0.7)" then "jump MDPBB.in loop"
set           atom ${randatomi} type 4                    # Set this grafted wall atom as a new type
set           atom 4052 type 4                    
  1 settings made for type
group         twg id ${randatomi}                         # Add this atom to a top-wall-grafted group
group         twg id 4052                         
9 atoms in group twg
variable      twgcount equal count(twg)
print         "twg contains ${twgcount}"
twg contains 9
print         "i = $(v_i)"                                # The index i should always be equal to the number of atom in twg
i = 9
variable      x0 equal x[${randatomi}]                    # Determine its x-coord
variable      x0 equal x[4052]                    
variable      y0 equal y[${randatomi}]                    # Determine its y-coord
variable      y0 equal y[4052]                    
variable      check0 equal ${check}                       # Count the number of atoms in the simulation
variable      check0 equal 5442                       
variable      b equal ${check}+1                          # The grafted bead id will be one higher after being inserted
variable      b equal 5442+1                          
if            "${twgcount} != $(v_i)" then "jump MDPBB.in loop"
# Otherwise insert the chain directly above the chosen wall atom pointing perpendicular to the wall
create_atoms  1 single ${x0} ${y0} ${z0} mol bs 24987 units box remap yes rotate 0 0 0 1
create_atoms  1 single 8.7307057858251 ${y0} ${z0} mol bs 24987 units box remap yes rotate 0 0 0 1
create_atoms  1 single 8.7307057858251 22.2236147275548 ${z0} mol bs 24987 units box remap yes rotate 0 0 0 1
create_atoms  1 single 8.7307057858251 22.2236147275548 17 mol bs 24987 units box remap yes rotate 0 0 0 1
Created 30 atoms
  create_atoms CPU = 0.0001303 secs
variable      check1 equal ${check}               # Count the new total number of atoms
variable      check1 equal 5472               
# Check that the molecule has indeed been inserted (This check is no longer an issue).
if            "${check1} != ${check0}" then "create_bonds  single/bond 2 ${randatomi} $b" "next i"
create_bonds  single/bond 2 ${randatomi} $b
create_bonds  single/bond 2 4052 $b
create_bonds  single/bond 2 4052 5443
  2 = max # of 1-2 neighbors
  5 = max # of special neighbors
  special bonds CPU = 0.0028218 secs
next i
jump MDPBB.in loop    # End of the loop
variable      randni equal round(random(1,${ntwall},$s))  # Pick a random "top" wall atom
variable      randni equal round(random(1,5202,$s))  
variable      randni equal round(random(1,5202,234897))  
variable      randatomi equal ${randni}                   # This is to obtain an integer number for atom-id
variable      randatomi equal 3200                   
variable      randzi equal z[${randatomi}]                # Determine the z coordinate of the chosen atom
variable      randzi equal z[3200]                
# if the chosen atom is not a surface atom then restart the loop
if            "${randzi} < $(v_wthick - 0.7)" then "jump MDPBB.in loop"
jump MDPBB.in loop
variable      randni equal round(random(1,${ntwall},$s))  # Pick a random "top" wall atom
variable      randni equal round(random(1,5202,$s))  
variable      randni equal round(random(1,5202,234897))  
variable      randatomi equal ${randni}                   # This is to obtain an integer number for atom-id
variable      randatomi equal 3224                   
variable      randzi equal z[${randatomi}]                # Determine the z coordinate of the chosen atom
variable      randzi equal z[3224]                
# if the chosen atom is not a surface atom then restart the loop
if            "${randzi} < $(v_wthick - 0.7)" then "jump MDPBB.in loop"
set           atom ${randatomi} type 4                    # Set this grafted wall atom as a new type
set           atom 3224 type 4                    
  1 settings made for type
group         twg id ${randatomi}                         # Add this atom to a top-wall-grafted group
group         twg id 3224                         
10 atoms in group twg
variable      twgcount equal count(twg)
print         "twg contains ${twgcount}"
twg contains 10
print         "i = $(v_i)"                                # The index i should always be equal to the number of atom in twg
i = 10
variable      x0 equal x[${randatomi}]                    # Determine its x-coord
variable      x0 equal x[3224]                    
variable      y0 equal y[${randatomi}]                    # Determine its y-coord
variable      y0 equal y[3224]                    
variable      check0 equal ${check}                       # Count the number of atoms in the simulation
variable      check0 equal 5472                       
variable      b equal ${check}+1                          # The grafted bead id will be one higher after being inserted
variable      b equal 5472+1                          
if            "${twgcount} != $(v_i)" then "jump MDPBB.in loop"
# Otherwise insert the chain directly above the chosen wall atom pointing perpendicular to the wall
create_atoms  1 single ${x0} ${y0} ${z0} mol bs 24987 units box remap yes rotate 0 0 0 1
create_atoms  1 single 3.9685026299205 ${y0} ${z0} mol bs 24987 units box remap yes rotate 0 0 0 1
create_atoms  1 single 3.9685026299205 9.5244063118092 ${z0} mol bs 24987 units box remap yes rotate 0 0 0 1
create_atoms  1 single 3.9685026299205 9.5244063118092 17 mol bs 24987 units box remap yes rotate 0 0 0 1
Created 30 atoms
  create_atoms CPU = 9.98e-05 secs
variable      check1 equal ${check}               # Count the new total number of atoms
variable      check1 equal 5502               
# Check that the molecule has indeed been inserted (This check is no longer an issue).
if            "${check1} != ${check0}" then "create_bonds  single/bond 2 ${randatomi} $b" "next i"
create_bonds  single/bond 2 ${randatomi} $b
create_bonds  single/bond 2 3224 $b
create_bonds  single/bond 2 3224 5473
  2 = max # of 1-2 neighbors
  5 = max # of special neighbors
  special bonds CPU = 0.0044869 secs
next i
jump MDPBB.in loop    # End of the loop
variable      randni equal round(random(1,${ntwall},$s))  # Pick a random "top" wall atom
variable      randni equal round(random(1,5202,$s))  
variable      randni equal round(random(1,5202,234897))  
variable      randatomi equal ${randni}                   # This is to obtain an integer number for atom-id
variable      randatomi equal 623                   
variable      randzi equal z[${randatomi}]                # Determine the z coordinate of the chosen atom
variable      randzi equal z[623]                
# if the chosen atom is not a surface atom then restart the loop
if            "${randzi} < $(v_wthick - 0.7)" then "jump MDPBB.in loop"
jump MDPBB.in loop
variable      randni equal round(random(1,${ntwall},$s))  # Pick a random "top" wall atom
variable      randni equal round(random(1,5202,$s))  
variable      randni equal round(random(1,5202,234897))  
variable      randatomi equal ${randni}                   # This is to obtain an integer number for atom-id
variable      randatomi equal 4530                   
variable      randzi equal z[${randatomi}]                # Determine the z coordinate of the chosen atom
variable      randzi equal z[4530]                
# if the chosen atom is not a surface atom then restart the loop
if            "${randzi} < $(v_wthick - 0.7)" then "jump MDPBB.in loop"
jump MDPBB.in loop
variable      randni equal round(random(1,${ntwall},$s))  # Pick a random "top" wall atom
variable      randni equal round(random(1,5202,$s))  
variable      randni equal round(random(1,5202,234897))  
variable      randatomi equal ${randni}                   # This is to obtain an integer number for atom-id
variable      randatomi equal 3131                   
variable      randzi equal z[${randatomi}]                # Determine the z coordinate of the chosen atom
variable      randzi equal z[3131]                
# if the chosen atom is not a surface atom then restart the loop
if            "${randzi} < $(v_wthick - 0.7)" then "jump MDPBB.in loop"
set           atom ${randatomi} type 4                    # Set this grafted wall atom as a new type
set           atom 3131 type 4                    
  1 settings made for type
group         twg id ${randatomi}                         # Add this atom to a top-wall-grafted group
group         twg id 3131                         
11 atoms in group twg
variable      twgcount equal count(twg)
print         "twg contains ${twgcount}"
twg contains 11
print         "i = $(v_i)"                                # The index i should always be equal to the number of atom in twg
i = 11
variable      x0 equal x[${randatomi}]                    # Determine its x-coord
variable      x0 equal x[3131]                    
variable      y0 equal y[${randatomi}]                    # Determine its y-coord
variable      y0 equal y[3131]                    
variable      check0 equal ${check}                       # Count the number of atoms in the simulation
variable      check0 equal 5502                       
variable      b equal ${check}+1                          # The grafted bead id will be one higher after being inserted
variable      b equal 5502+1                          
if            "${twgcount} != $(v_i)" then "jump MDPBB.in loop"
# Otherwise insert the chain directly above the chosen wall atom pointing perpendicular to the wall
create_atoms  1 single ${x0} ${y0} ${z0} mol bs 24987 units box remap yes rotate 0 0 0 1
create_atoms  1 single 6.3496042078728 ${y0} ${z0} mol bs 24987 units box remap yes rotate 0 0 0 1
create_atoms  1 single 6.3496042078728 8.7307057858251 ${z0} mol bs 24987 units box remap yes rotate 0 0 0 1
create_atoms  1 single 6.3496042078728 8.7307057858251 17 mol bs 24987 units box remap yes rotate 0 0 0 1
Created 30 atoms
  create_atoms CPU = 0.0001018 secs
variable      check1 equal ${check}               # Count the new total number of atoms
variable      check1 equal 5532               
# Check that the molecule has indeed been inserted (This check is no longer an issue).
if            "${check1} != ${check0}" then "create_bonds  single/bond 2 ${randatomi} $b" "next i"
create_bonds  single/bond 2 ${randatomi} $b
create_bonds  single/bond 2 3131 $b
create_bonds  single/bond 2 3131 5503
  2 = max # of 1-2 neighbors
  5 = max # of special neighbors
  special bonds CPU = 0.0052512 secs
next i
jump MDPBB.in loop    # End of the loop
variable      randni equal round(random(1,${ntwall},$s))  # Pick a random "top" wall atom
variable      randni equal round(random(1,5202,$s))  
variable      randni equal round(random(1,5202,234897))  
variable      randatomi equal ${randni}                   # This is to obtain an integer number for atom-id
variable      randatomi equal 4780                   
variable      randzi equal z[${randatomi}]                # Determine the z coordinate of the chosen atom
variable      randzi equal z[4780]                
# if the chosen atom is not a surface atom then restart the loop
if            "${randzi} < $(v_wthick - 0.7)" then "jump MDPBB.in loop"
jump MDPBB.in loop
variable      randni equal round(random(1,${ntwall},$s))  # Pick a random "top" wall atom
variable      randni equal round(random(1,5202,$s))  
variable      randni equal round(random(1,5202,234897))  
variable      randatomi equal ${randni}                   # This is to obtain an integer number for atom-id
variable      randatomi equal 3625                   
variable      randzi equal z[${randatomi}]                # Determine the z coordinate of the chosen atom
variable      randzi equal z[3625]                
# if the chosen atom is not a surface atom then restart the loop
if            "${randzi} < $(v_wthick - 0.7)" then "jump MDPBB.in loop"
set           atom ${randatomi} type 4                    # Set this grafted wall atom as a new type
set           atom 3625 type 4                    
  1 settings made for type
group         twg id ${randatomi}                         # Add this atom to a top-wall-grafted group
group         twg id 3625                         
12 atoms in group twg
variable      twgcount equal count(twg)
print         "twg contains ${twgcount}"
twg contains 12
print         "i = $(v_i)"                                # The index i should always be equal to the number of atom in twg
i = 12
variable      x0 equal x[${randatomi}]                    # Determine its x-coord
variable      x0 equal x[3625]                    
variable      y0 equal y[${randatomi}]                    # Determine its y-coord
variable      y0 equal y[3625]                    
variable      check0 equal ${check}                       # Count the number of atoms in the simulation
variable      check0 equal 5532                       
variable      b equal ${check}+1                          # The grafted bead id will be one higher after being inserted
variable      b equal 5532+1                          
if            "${twgcount} != $(v_i)" then "jump MDPBB.in loop"
# Otherwise insert the chain directly above the chosen wall atom pointing perpendicular to the wall
create_atoms  1 single ${x0} ${y0} ${z0} mol bs 24987 units box remap yes rotate 0 0 0 1
create_atoms  1 single 0 ${y0} ${z0} mol bs 24987 units box remap yes rotate 0 0 0 1
create_atoms  1 single 0 16.6677110456661 ${z0} mol bs 24987 units box remap yes rotate 0 0 0 1
create_atoms  1 single 0 16.6677110456661 17 mol bs 24987 units box remap yes rotate 0 0 0 1
Created 30 atoms
  create_atoms CPU = 0.0001466 secs
variable      check1 equal ${check}               # Count the new total number of atoms
variable      check1 equal 5562               
# Check that the molecule has indeed been inserted (This check is no longer an issue).
if            "${check1} != ${check0}" then "create_bonds  single/bond 2 ${randatomi} $b" "next i"
create_bonds  single/bond 2 ${randatomi} $b
create_bonds  single/bond 2 3625 $b
create_bonds  single/bond 2 3625 5533
  2 = max # of 1-2 neighbors
  5 = max # of special neighbors
  special bonds CPU = 0.0041685 secs
next i
jump MDPBB.in loop    # End of the loop
variable      randni equal round(random(1,${ntwall},$s))  # Pick a random "top" wall atom
variable      randni equal round(random(1,5202,$s))  
variable      randni equal round(random(1,5202,234897))  
variable      randatomi equal ${randni}                   # This is to obtain an integer number for atom-id
variable      randatomi equal 4671                   
variable      randzi equal z[${randatomi}]                # Determine the z coordinate of the chosen atom
variable      randzi equal z[4671]                
# if the chosen atom is not a surface atom then restart the loop
if            "${randzi} < $(v_wthick - 0.7)" then "jump MDPBB.in loop"
jump MDPBB.in loop
variable      randni equal round(random(1,${ntwall},$s))  # Pick a random "top" wall atom
variable      randni equal round(random(1,5202,$s))  
variable      randni equal round(random(1,5202,234897))  
variable      randatomi equal ${randni}                   # This is to obtain an integer number for atom-id
variable      randatomi equal 3060                   
variable      randzi equal z[${randatomi}]                # Determine the z coordinate of the chosen atom
variable      randzi equal z[3060]                
# if the chosen atom is not a surface atom then restart the loop
if            "${randzi} < $(v_wthick - 0.7)" then "jump MDPBB.in loop"
set           atom ${randatomi} type 4                    # Set this grafted wall atom as a new type
set           atom 3060 type 4                    
  1 settings made for type
group         twg id ${randatomi}                         # Add this atom to a top-wall-grafted group
group         twg id 3060                         
13 atoms in group twg
variable      twgcount equal count(twg)
print         "twg contains ${twgcount}"
twg contains 13
print         "i = $(v_i)"                                # The index i should always be equal to the number of atom in twg
i = 13
variable      x0 equal x[${randatomi}]                    # Determine its x-coord
variable      x0 equal x[3060]                    
variable      y0 equal y[${randatomi}]                    # Determine its y-coord
variable      y0 equal y[3060]                    
variable      check0 equal ${check}                       # Count the number of atoms in the simulation
variable      check0 equal 5562                       
variable      b equal ${check}+1                          # The grafted bead id will be one higher after being inserted
variable      b equal 5562+1                          
if            "${twgcount} != $(v_i)" then "jump MDPBB.in loop"
# Otherwise insert the chain directly above the chosen wall atom pointing perpendicular to the wall
create_atoms  1 single ${x0} ${y0} ${z0} mol bs 24987 units box remap yes rotate 0 0 0 1
create_atoms  1 single 19.8425131496025 ${y0} ${z0} mol bs 24987 units box remap yes rotate 0 0 0 1
create_atoms  1 single 19.8425131496025 6.3496042078728 ${z0} mol bs 24987 units box remap yes rotate 0 0 0 1
create_atoms  1 single 19.8425131496025 6.3496042078728 17 mol bs 24987 units box remap yes rotate 0 0 0 1
Created 30 atoms
  create_atoms CPU = 0.0001016 secs
variable      check1 equal ${check}               # Count the new total number of atoms
variable      check1 equal 5592               
# Check that the molecule has indeed been inserted (This check is no longer an issue).
if            "${check1} != ${check0}" then "create_bonds  single/bond 2 ${randatomi} $b" "next i"
create_bonds  single/bond 2 ${randatomi} $b
create_bonds  single/bond 2 3060 $b
create_bonds  single/bond 2 3060 5563
  2 = max # of 1-2 neighbors
  5 = max # of special neighbors
  special bonds CPU = 0.0035157 secs
next i
jump MDPBB.in loop    # End of the loop
variable      randni equal round(random(1,${ntwall},$s))  # Pick a random "top" wall atom
variable      randni equal round(random(1,5202,$s))  
variable      randni equal round(random(1,5202,234897))  
variable      randatomi equal ${randni}                   # This is to obtain an integer number for atom-id
variable      randatomi equal 4423                   
variable      randzi equal z[${randatomi}]                # Determine the z coordinate of the chosen atom
variable      randzi equal z[4423]                
# if the chosen atom is not a surface atom then restart the loop
if            "${randzi} < $(v_wthick - 0.7)" then "jump MDPBB.in loop"
set           atom ${randatomi} type 4                    # Set this grafted wall atom as a new type
set           atom 4423 type 4                    
  1 settings made for type
group         twg id ${randatomi}                         # Add this atom to a top-wall-grafted group
group         twg id 4423                         
14 atoms in group twg
variable      twgcount equal count(twg)
print         "twg contains ${twgcount}"
twg contains 14
print         "i = $(v_i)"                                # The index i should always be equal to the number of atom in twg
i = 14
variable      x0 equal x[${randatomi}]                    # Determine its x-coord
variable      x0 equal x[4423]                    
variable      y0 equal y[${randatomi}]                    # Determine its y-coord
variable      y0 equal y[4423]                    
variable      check0 equal ${check}                       # Count the number of atoms in the simulation
variable      check0 equal 5592                       
variable      b equal ${check}+1                          # The grafted bead id will be one higher after being inserted
variable      b equal 5592+1                          
if            "${twgcount} != $(v_i)" then "jump MDPBB.in loop"
# Otherwise insert the chain directly above the chosen wall atom pointing perpendicular to the wall
create_atoms  1 single ${x0} ${y0} ${z0} mol bs 24987 units box remap yes rotate 0 0 0 1
create_atoms  1 single 33.3354220913322 ${y0} ${z0} mol bs 24987 units box remap yes rotate 0 0 0 1
create_atoms  1 single 33.3354220913322 27.7795184094435 ${z0} mol bs 24987 units box remap yes rotate 0 0 0 1
create_atoms  1 single 33.3354220913322 27.7795184094435 17 mol bs 24987 units box remap yes rotate 0 0 0 1
Created 30 atoms
  create_atoms CPU = 0.0001084 secs
variable      check1 equal ${check}               # Count the new total number of atoms
variable      check1 equal 5622               
# Check that the molecule has indeed been inserted (This check is no longer an issue).
if            "${check1} != ${check0}" then "create_bonds  single/bond 2 ${randatomi} $b" "next i"
create_bonds  single/bond 2 ${randatomi} $b
create_bonds  single/bond 2 4423 $b
create_bonds  single/bond 2 4423 5593
  2 = max # of 1-2 neighbors
  5 = max # of special neighbors
  special bonds CPU = 0.0037948 secs
next i
jump MDPBB.in loop    # End of the loop
variable      randni equal round(random(1,${ntwall},$s))  # Pick a random "top" wall atom
variable      randni equal round(random(1,5202,$s))  
variable      randni equal round(random(1,5202,234897))  
variable      randatomi equal ${randni}                   # This is to obtain an integer number for atom-id
variable      randatomi equal 4359                   
variable      randzi equal z[${randatomi}]                # Determine the z coordinate of the chosen atom
variable      randzi equal z[4359]                
# if the chosen atom is not a surface atom then restart the loop
if            "${randzi} < $(v_wthick - 0.7)" then "jump MDPBB.in loop"
set           atom ${randatomi} type 4                    # Set this grafted wall atom as a new type
set           atom 4359 type 4                    
  1 settings made for type
group         twg id ${randatomi}                         # Add this atom to a top-wall-grafted group
group         twg id 4359                         
15 atoms in group twg
variable      twgcount equal count(twg)
print         "twg contains ${twgcount}"
twg contains 15
print         "i = $(v_i)"                                # The index i should always be equal to the number of atom in twg
i = 15
variable      x0 equal x[${randatomi}]                    # Determine its x-coord
variable      x0 equal x[4359]                    
variable      y0 equal y[${randatomi}]                    # Determine its y-coord
variable      y0 equal y[4359]                    
variable      check0 equal ${check}                       # Count the number of atoms in the simulation
variable      check0 equal 5622                       
variable      b equal ${check}+1                          # The grafted bead id will be one higher after being inserted
variable      b equal 5622+1                          
if            "${twgcount} != $(v_i)" then "jump MDPBB.in loop"
# Otherwise insert the chain directly above the chosen wall atom pointing perpendicular to the wall
create_atoms  1 single ${x0} ${y0} ${z0} mol bs 24987 units box remap yes rotate 0 0 0 1
create_atoms  1 single 7.937005259841 ${y0} ${z0} mol bs 24987 units box remap yes rotate 0 0 0 1
create_atoms  1 single 7.937005259841 27.7795184094435 ${z0} mol bs 24987 units box remap yes rotate 0 0 0 1
create_atoms  1 single 7.937005259841 27.7795184094435 17 mol bs 24987 units box remap yes rotate 0 0 0 1
Created 30 atoms
  create_atoms CPU = 0.0001435 secs
variable      check1 equal ${check}               # Count the new total number of atoms
variable      check1 equal 5652               
# Check that the molecule has indeed been inserted (This check is no longer an issue).
if            "${check1} != ${check0}" then "create_bonds  single/bond 2 ${randatomi} $b" "next i"
create_bonds  single/bond 2 ${randatomi} $b
create_bonds  single/bond 2 4359 $b
create_bonds  single/bond 2 4359 5623
  2 = max # of 1-2 neighbors
  5 = max # of special neighbors
  special bonds CPU = 0.0027775 secs
next i
jump MDPBB.in loop    # End of the loop
variable      randni equal round(random(1,${ntwall},$s))  # Pick a random "top" wall atom
variable      randni equal round(random(1,5202,$s))  
variable      randni equal round(random(1,5202,234897))  
variable      randatomi equal ${randni}                   # This is to obtain an integer number for atom-id
variable      randatomi equal 2163                   
variable      randzi equal z[${randatomi}]                # Determine the z coordinate of the chosen atom
variable      randzi equal z[2163]                
# if the chosen atom is not a surface atom then restart the loop
if            "${randzi} < $(v_wthick - 0.7)" then "jump MDPBB.in loop"
jump MDPBB.in loop
variable      randni equal round(random(1,${ntwall},$s))  # Pick a random "top" wall atom
variable      randni equal round(random(1,5202,$s))  
variable      randni equal round(random(1,5202,234897))  
variable      randatomi equal ${randni}                   # This is to obtain an integer number for atom-id
variable      randatomi equal 5194                   
variable      randzi equal z[${randatomi}]                # Determine the z coordinate of the chosen atom
variable      randzi equal z[5194]                
# if the chosen atom is not a surface atom then restart the loop
if            "${randzi} < $(v_wthick - 0.7)" then "jump MDPBB.in loop"
jump MDPBB.in loop
variable      randni equal round(random(1,${ntwall},$s))  # Pick a random "top" wall atom
variable      randni equal round(random(1,5202,$s))  
variable      randni equal round(random(1,5202,234897))  
variable      randatomi equal ${randni}                   # This is to obtain an integer number for atom-id
variable      randatomi equal 5070                   
variable      randzi equal z[${randatomi}]                # Determine the z coordinate of the chosen atom
variable      randzi equal z[5070]                
# if the chosen atom is not a surface atom then restart the loop
if            "${randzi} < $(v_wthick - 0.7)" then "jump MDPBB.in loop"
jump MDPBB.in loop
variable      randni equal round(random(1,${ntwall},$s))  # Pick a random "top" wall atom
variable      randni equal round(random(1,5202,$s))  
variable      randni equal round(random(1,5202,234897))  
variable      randatomi equal ${randni}                   # This is to obtain an integer number for atom-id
variable      randatomi equal 3768                   
variable      randzi equal z[${randatomi}]                # Determine the z coordinate of the chosen atom
variable      randzi equal z[3768]                
# if the chosen atom is not a surface atom then restart the loop
if            "${randzi} < $(v_wthick - 0.7)" then "jump MDPBB.in loop"
jump MDPBB.in loop
variable      randni equal round(random(1,${ntwall},$s))  # Pick a random "top" wall atom
variable      randni equal round(random(1,5202,$s))  
variable      randni equal round(random(1,5202,234897))  
variable      randatomi equal ${randni}                   # This is to obtain an integer number for atom-id
variable      randatomi equal 4887                   
variable      randzi equal z[${randatomi}]                # Determine the z coordinate of the chosen atom
variable      randzi equal z[4887]                
# if the chosen atom is not a surface atom then restart the loop
if            "${randzi} < $(v_wthick - 0.7)" then "jump MDPBB.in loop"
jump MDPBB.in loop
variable      randni equal round(random(1,${ntwall},$s))  # Pick a random "top" wall atom
variable      randni equal round(random(1,5202,$s))  
variable      randni equal round(random(1,5202,234897))  
variable      randatomi equal ${randni}                   # This is to obtain an integer number for atom-id
variable      randatomi equal 1228                   
variable      randzi equal z[${randatomi}]                # Determine the z coordinate of the chosen atom
variable      randzi equal z[1228]                
# if the chosen atom is not a surface atom then restart the loop
if            "${randzi} < $(v_wthick - 0.7)" then "jump MDPBB.in loop"
jump MDPBB.in loop
variable      randni equal round(random(1,${ntwall},$s))  # Pick a random "top" wall atom
variable      randni equal round(random(1,5202,$s))  
variable      randni equal round(random(1,5202,234897))  
variable      randatomi equal ${randni}                   # This is to obtain an integer number for atom-id
variable      randatomi equal 4852                   
variable      randzi equal z[${randatomi}]                # Determine the z coordinate of the chosen atom
variable      randzi equal z[4852]                
# if the chosen atom is not a surface atom then restart the loop
if            "${randzi} < $(v_wthick - 0.7)" then "jump MDPBB.in loop"
set           atom ${randatomi} type 4                    # Set this grafted wall atom as a new type
set           atom 4852 type 4                    
  1 settings made for type
group         twg id ${randatomi}                         # Add this atom to a top-wall-grafted group
group         twg id 4852                         
16 atoms in group twg
variable      twgcount equal count(twg)
print         "twg contains ${twgcount}"
twg contains 16
print         "i = $(v_i)"                                # The index i should always be equal to the number of atom in twg
i = 16
variable      x0 equal x[${randatomi}]                    # Determine its x-coord
variable      x0 equal x[4852]                    
variable      y0 equal y[${randatomi}]                    # Determine its y-coord
variable      y0 equal y[4852]                    
variable      check0 equal ${check}                       # Count the number of atoms in the simulation
variable      check0 equal 5652                       
variable      b equal ${check}+1                          # The grafted bead id will be one higher after being inserted
variable      b equal 5652+1                          
if            "${twgcount} != $(v_i)" then "jump MDPBB.in loop"
# Otherwise insert the chain directly above the chosen wall atom pointing perpendicular to the wall
create_atoms  1 single ${x0} ${y0} ${z0} mol bs 24987 units box remap yes rotate 0 0 0 1
create_atoms  1 single 2.3811015779523 ${y0} ${z0} mol bs 24987 units box remap yes rotate 0 0 0 1
create_atoms  1 single 2.3811015779523 34.9228231433004 ${z0} mol bs 24987 units box remap yes rotate 0 0 0 1
create_atoms  1 single 2.3811015779523 34.9228231433004 17 mol bs 24987 units box remap yes rotate 0 0 0 1
Created 30 atoms
  create_atoms CPU = 0.0001346 secs
variable      check1 equal ${check}               # Count the new total number of atoms
variable      check1 equal 5682               
# Check that the molecule has indeed been inserted (This check is no longer an issue).
if            "${check1} != ${check0}" then "create_bonds  single/bond 2 ${randatomi} $b" "next i"
create_bonds  single/bond 2 ${randatomi} $b
create_bonds  single/bond 2 4852 $b
create_bonds  single/bond 2 4852 5653
  2 = max # of 1-2 neighbors
  5 = max # of special neighbors
  special bonds CPU = 0.0023843 secs
next i
jump MDPBB.in loop    # End of the loop
variable      randni equal round(random(1,${ntwall},$s))  # Pick a random "top" wall atom
variable      randni equal round(random(1,5202,$s))  
variable      randni equal round(random(1,5202,234897))  
variable      randatomi equal ${randni}                   # This is to obtain an integer number for atom-id
variable      randatomi equal 680                   
variable      randzi equal z[${randatomi}]                # Determine the z coordinate of the chosen atom
variable      randzi equal z[680]                
# if the chosen atom is not a surface atom then restart the loop
if            "${randzi} < $(v_wthick - 0.7)" then "jump MDPBB.in loop"
jump MDPBB.in loop
variable      randni equal round(random(1,${ntwall},$s))  # Pick a random "top" wall atom
variable      randni equal round(random(1,5202,$s))  
variable      randni equal round(random(1,5202,234897))  
variable      randatomi equal ${randni}                   # This is to obtain an integer number for atom-id
variable      randatomi equal 4423                   
variable      randzi equal z[${randatomi}]                # Determine the z coordinate of the chosen atom
variable      randzi equal z[4423]                
# if the chosen atom is not a surface atom then restart the loop
if            "${randzi} < $(v_wthick - 0.7)" then "jump MDPBB.in loop"
set           atom ${randatomi} type 4                    # Set this grafted wall atom as a new type
set           atom 4423 type 4                    
  1 settings made for type
group         twg id ${randatomi}                         # Add this atom to a top-wall-grafted group
group         twg id 4423                         
16 atoms in group twg
variable      twgcount equal count(twg)
print         "twg contains ${twgcount}"
twg contains 16
print         "i = $(v_i)"                                # The index i should always be equal to the number of atom in twg
i = 17
variable      x0 equal x[${randatomi}]                    # Determine its x-coord
variable      x0 equal x[4423]                    
variable      y0 equal y[${randatomi}]                    # Determine its y-coord
variable      y0 equal y[4423]                    
variable      check0 equal ${check}                       # Count the number of atoms in the simulation
variable      check0 equal 5682                       
variable      b equal ${check}+1                          # The grafted bead id will be one higher after being inserted
variable      b equal 5682+1                          
if            "${twgcount} != $(v_i)" then "jump MDPBB.in loop"
jump MDPBB.in loop
variable      randni equal round(random(1,${ntwall},$s))  # Pick a random "top" wall atom
variable      randni equal round(random(1,5202,$s))  
variable      randni equal round(random(1,5202,234897))  
variable      randatomi equal ${randni}                   # This is to obtain an integer number for atom-id
variable      randatomi equal 4859                   
variable      randzi equal z[${randatomi}]                # Determine the z coordinate of the chosen atom
variable      randzi equal z[4859]                
# if the chosen atom is not a surface atom then restart the loop
if            "${randzi} < $(v_wthick - 0.7)" then "jump MDPBB.in loop"
jump MDPBB.in loop
variable      randni equal round(random(1,${ntwall},$s))  # Pick a random "top" wall atom
variable      randni equal round(random(1,5202,$s))  
variable      randni equal round(random(1,5202,234897))  
variable      randatomi equal ${randni}                   # This is to obtain an integer number for atom-id
variable      randatomi equal 1781                   
variable      randzi equal z[${randatomi}]                # Determine the z coordinate of the chosen atom
variable      randzi equal z[1781]                
# if the chosen atom is not a surface atom then restart the loop
if            "${randzi} < $(v_wthick - 0.7)" then "jump MDPBB.in loop"
jump MDPBB.in loop
variable      randni equal round(random(1,${ntwall},$s))  # Pick a random "top" wall atom
variable      randni equal round(random(1,5202,$s))  
variable      randni equal round(random(1,5202,234897))  
variable      randatomi equal ${randni}                   # This is to obtain an integer number for atom-id
variable      randatomi equal 1354                   
variable      randzi equal z[${randatomi}]                # Determine the z coordinate of the chosen atom
variable      randzi equal z[1354]                
# if the chosen atom is not a surface atom then restart the loop
if            "${randzi} < $(v_wthick - 0.7)" then "jump MDPBB.in loop"
jump MDPBB.in loop
variable      randni equal round(random(1,${ntwall},$s))  # Pick a random "top" wall atom
variable      randni equal round(random(1,5202,$s))  
variable      randni equal round(random(1,5202,234897))  
variable      randatomi equal ${randni}                   # This is to obtain an integer number for atom-id
variable      randatomi equal 3454                   
variable      randzi equal z[${randatomi}]                # Determine the z coordinate of the chosen atom
variable      randzi equal z[3454]                
# if the chosen atom is not a surface atom then restart the loop
if            "${randzi} < $(v_wthick - 0.7)" then "jump MDPBB.in loop"
jump MDPBB.in loop
variable      randni equal round(random(1,${ntwall},$s))  # Pick a random "top" wall atom
variable      randni equal round(random(1,5202,$s))  
variable      randni equal round(random(1,5202,234897))  
variable      randatomi equal ${randni}                   # This is to obtain an integer number for atom-id
variable      randatomi equal 2425                   
variable      randzi equal z[${randatomi}]                # Determine the z coordinate of the chosen atom
variable      randzi equal z[2425]                
# if the chosen atom is not a surface atom then restart the loop
if            "${randzi} < $(v_wthick - 0.7)" then "jump MDPBB.in loop"
jump MDPBB.in loop
variable      randni equal round(random(1,${ntwall},$s))  # Pick a random "top" wall atom
variable      randni equal round(random(1,5202,$s))  
variable      randni equal round(random(1,5202,234897))  
variable      randatomi equal ${randni}                   # This is to obtain an integer number for atom-id
variable      randatomi equal 752                   
variable      randzi equal z[${randatomi}]                # Determine the z coordinate of the chosen atom
variable      randzi equal z[752]                
# if the chosen atom is not a surface atom then restart the loop
if            "${randzi} < $(v_wthick - 0.7)" then "jump MDPBB.in loop"
jump MDPBB.in loop
variable      randni equal round(random(1,${ntwall},$s))  # Pick a random "top" wall atom
variable      randni equal round(random(1,5202,$s))  
variable      randni equal round(random(1,5202,234897))  
variable      randatomi equal ${randni}                   # This is to obtain an integer number for atom-id
variable      randatomi equal 4790                   
variable      randzi equal z[${randatomi}]                # Determine the z coordinate of the chosen atom
variable      randzi equal z[4790]                
# if the chosen atom is not a surface atom then restart the loop
if            "${randzi} < $(v_wthick - 0.7)" then "jump MDPBB.in loop"
set           atom ${randatomi} type 4                    # Set this grafted wall atom as a new type
set           atom 4790 type 4                    
  1 settings made for type
group         twg id ${randatomi}                         # Add this atom to a top-wall-grafted group
group         twg id 4790                         
17 atoms in group twg
variable      twgcount equal count(twg)
print         "twg contains ${twgcount}"
twg contains 17
print         "i = $(v_i)"                                # The index i should always be equal to the number of atom in twg
i = 17
variable      x0 equal x[${randatomi}]                    # Determine its x-coord
variable      x0 equal x[4790]                    
variable      y0 equal y[${randatomi}]                    # Determine its y-coord
variable      y0 equal y[4790]                    
variable      check0 equal ${check}                       # Count the number of atoms in the simulation
variable      check0 equal 5682                       
variable      b equal ${check}+1                          # The grafted bead id will be one higher after being inserted
variable      b equal 5682+1                          
if            "${twgcount} != $(v_i)" then "jump MDPBB.in loop"
# Otherwise insert the chain directly above the chosen wall atom pointing perpendicular to the wall
create_atoms  1 single ${x0} ${y0} ${z0} mol bs 24987 units box remap yes rotate 0 0 0 1
create_atoms  1 single 18.2551120976343 ${y0} ${z0} mol bs 24987 units box remap yes rotate 0 0 0 1
create_atoms  1 single 18.2551120976343 33.3354220913322 ${z0} mol bs 24987 units box remap yes rotate 0 0 0 1
create_atoms  1 single 18.2551120976343 33.3354220913322 17 mol bs 24987 units box remap yes rotate 0 0 0 1
Created 30 atoms
  create_atoms CPU = 0.0001319 secs
variable      check1 equal ${check}               # Count the new total number of atoms
variable      check1 equal 5712               
# Check that the molecule has indeed been inserted (This check is no longer an issue).
if            "${check1} != ${check0}" then "create_bonds  single/bond 2 ${randatomi} $b" "next i"
create_bonds  single/bond 2 ${randatomi} $b
create_bonds  single/bond 2 4790 $b
create_bonds  single/bond 2 4790 5683
  2 = max # of 1-2 neighbors
  5 = max # of special neighbors
  special bonds CPU = 0.0025057 secs
next i
jump MDPBB.in loop    # End of the loop
variable      randni equal round(random(1,${ntwall},$s))  # Pick a random "top" wall atom
variable      randni equal round(random(1,5202,$s))  
variable      randni equal round(random(1,5202,234897))  
variable      randatomi equal ${randni}                   # This is to obtain an integer number for atom-id
variable      randatomi equal 4976                   
variable      randzi equal z[${randatomi}]                # Determine the z coordinate of the chosen atom
variable      randzi equal z[4976]                
# if the chosen atom is not a surface atom then restart the loop
[...]
 3730000    4.0331724     1.290924    2.7422484  -0.23312815   0.86066488    1.0196793   0.75070772   -1.2298232            1  -0.19403089  -0.39740777  -0.45757421   0.27288931 -0.0042417835   0.02732969 -0.0099423135  -0.34888341  -0.33958504   0.71841462        0.075    1.4059297        1e-10 1.5964769e-11    6.2637924    2.4416386    31.520363  0.012180805  -0.20167042 0.0055780196    0.2044615   -1.0097861   0.87985305 
 3731000    4.0450068    1.3032618     2.741745  -0.22114995   0.86889054    1.0288257   0.75829704   -1.2298232            1  -0.10078572  -0.34141112  -0.36409907   0.40315303 -0.0095870061 -0.018095188  0.012869518  -0.25720373  -0.24764546   0.71260549        0.075    1.4217425        1e-10 1.5835677e-11    6.3148546    2.4346167    31.520363 -0.0056268229  -0.19668234 0.0084125167   0.18025149  -0.74497557    1.4550448 
 3732000    4.0332061    1.2858077    2.7473984  -0.22689577   0.85725384    1.0236397   0.74219525   -1.2298232            1   -0.2054932  -0.45224417  -0.43987541   0.27563999  0.017182036 -0.0010670214  -0.00634076  -0.35858981  -0.35161267   0.71294065        0.075    1.4287834        1e-10 1.5843126e-11    6.3118859    2.4635371    31.520363 0.00025150667  -0.17251271 0.0036044513   0.20294316  -0.90839716  -0.57559233 
 3733000    4.0333148    1.2854285    2.7478862  -0.23468984   0.85700104    1.0035308   0.75568306   -1.2298232            1  -0.17452244  -0.44087442  -0.43522064   0.35252775 -0.0050438569 -0.053482709 -0.049550768  -0.33040125  -0.31777147   0.71331553        0.075    1.4321165        1e-10 1.5851456e-11    6.3085687     2.438993    31.520363 -0.0033222982  -0.20866016 -0.00014990994   0.22551272    1.3768946    1.4223344 
 3734000    4.0537046    1.3133448    2.7403598  -0.23229742   0.87561296    1.0188006   0.77660957   -1.2298232            1  -0.10913867  -0.37951635  -0.36979061   0.42189093 -0.015237327 -0.034046236  0.052874689  -0.26933411  -0.25456739   0.71801224        0.075    1.4408927        1e-10 1.5955827e-11    6.2673027    2.4395667    31.520363 -0.0035310322  -0.20142848 -0.0074842248   0.20095061  -0.32627269   0.22357081 
 3735000    4.0387546    1.2837335     2.755021  -0.22861994   0.85587098    0.9993824   0.75664164   -1.2298232            1  -0.17454908  -0.40886458  -0.44688339   0.33210073  0.012990464  0.059584043  0.027686143  -0.33062563  -0.31720595    0.7132194        0.075    1.4400159        1e-10 1.584932e-11     6.309419     2.447164    31.520363 0.0089120208  -0.19670872 -0.016345322   0.21526617  -0.10447457   0.37424676 
 3736000    4.0392922    1.2810767    2.7582155  -0.23107675   0.85409962    1.0012044   0.75238347   -1.2298232            1 -0.089188495  -0.36759477  -0.34369204   0.44372132 0.0024704052  0.063234272  0.047782464  -0.24438668  -0.23210544   0.71192981        0.075     1.441937        1e-10 1.5820662e-11    6.3208479      2.44242    31.520363 -0.010077118  -0.19433841 -0.0022412038   0.18033935    1.2158357    0.1367433 
 3737000    4.0255917    1.2875926    2.7379991  -0.22389738   0.85844382    1.0101008   0.75357791   -1.2298232            1    -0.122993  -0.35774703  -0.39843859   0.38720662  0.015164142    0.1245323 -0.00027368117  -0.27843758  -0.26717986   0.71937655        0.075    1.4452371        1e-10 1.5986146e-11    6.2554166    2.4527695    31.520363 -0.0044606907  -0.18943309 0.0020575127   0.21402763  -0.25538764    2.8989091 
 3738000    4.0317403    1.2731908    2.7585495  -0.22296437    0.8488421   0.98336369   0.75583316   -1.2298232            1  -0.15724507  -0.41800834  -0.38866168   0.33493482 -0.022162564  0.046959003 -0.044856218  -0.31315484  -0.29761534   0.71965968        0.075    1.4320952        1e-10 1.5992437e-11    6.2529556     2.444957    31.520363 -0.00047498395   -0.2127916 -0.0046123199   0.22524588    1.2070683   0.97596695 
 3739000     4.004345    1.2678119    2.7365331  -0.22641619   0.84525594   0.99320996   0.74295124   -1.2298232            1  -0.17415352  -0.41064203  -0.44977293    0.3379544  0.011824518 0.0070142871  0.033016645  -0.32740607   -0.3159293   0.72017336        0.075    1.4156686        1e-10 1.6003852e-11    6.2484955    2.4501334    31.520363 0.0042905197  -0.20641161 -0.00073600501   0.19947984   0.12574364   -1.4191401 
 3740000    4.0273905    1.2802667    2.7471239  -0.23202506   0.85355959   0.99788446   0.75376711   -1.2298232            1 -0.099795688  -0.35228392  -0.40121867   0.45411553 -0.0033635138  0.083161158  0.068450697  -0.25527929  -0.24223873   0.71790244        0.075    1.4175668        1e-10 1.5953387e-11    6.2682612    2.4514329    31.520363 0.0016676167  -0.20449396 -0.0068796298   0.18973391   0.19244037    1.9581797 
 3741000    4.0172646    1.2670843    2.7501803   -0.2305622   0.84477088   0.99423667   0.74141998   -1.2298232            1  -0.12330997  -0.41256426  -0.38069698   0.42333134 -0.0083077695 -0.042870724  0.022630911  -0.27624666  -0.26523231   0.71631878        0.075    1.4479221        1e-10 1.5918195e-11    6.2821193    2.4555316    31.520363 -0.0011850853  -0.22014967 0.0074892946   0.18879728   0.47131148    1.0346946 
 3742000    4.0316808    1.3022924    2.7293884  -0.23090179   0.86824424    1.0257655   0.75932114   -1.2298232            1  -0.14388551  -0.40806747  -0.34439463   0.32080556 0.0030628135  0.023203731  0.041373233  -0.30051477  -0.29030843    0.7176945        0.075    1.4412209        1e-10 1.5948767e-11    6.2700773    2.4618089    31.520363 -0.0051958902  -0.19174617 -0.010945382   0.20108381  -0.12970054    1.5977042 
 3743000    4.0351108    1.2805561    2.7545547  -0.22831654   0.85375255    1.0024669   0.75092248   -1.2298232            1  -0.17007482  -0.41375156  -0.42218313   0.32571022 2.7553056e-05  0.021078199 -0.027306245  -0.32497165  -0.31317199   0.72048408        0.075    1.4357122        1e-10 1.6010757e-11    6.2458007    2.4485906    31.520363 -0.0069265482  -0.20279779 0.0019720572   0.20887839   0.30891709    1.7588667 
 3744000    4.0410805    1.2871383    2.7539421  -0.22804057   0.85814097    1.0130004   0.75105887   -1.2298232            1 -0.078000683  -0.36396775  -0.31953078   0.44949648 -0.024710471 -0.024225155 -0.011943013  -0.23292564  -0.22260146   0.72065107        0.075    1.4497234        1e-10 1.6014468e-11    6.2443534     2.445841    31.520363 -0.0041645286  -0.19116065 0.0097427211   0.21963128   -1.1417761    1.4371267 
 3745000    4.0367227    1.2940432    2.7426795  -0.23047459   0.86274445    1.0072068   0.76285768   -1.2298232            1   -0.1143501  -0.35305403  -0.36813281   0.37813654 -0.0076759215 0.00072153098 0.0029369617  -0.27170886  -0.25812386   0.71532724        0.075    1.4436468        1e-10 1.5896161e-11    6.2908271    2.4420333    31.520363 -0.00015693809  -0.19270205 -0.0082889029   0.21226509  -0.83571742   0.92381049 
 3746000     4.032665     1.279751     2.752914  -0.22932448   0.85321579    1.0027294   0.74983263   -1.2298232            1 -0.038761592  -0.34065545  -0.32254432   0.54691499 -0.0053223044  0.015764517  0.035379656  -0.19343361  -0.18189622   0.71724059        0.075    1.4429184        1e-10 1.593868e-11    6.2740453    2.4379237    31.520363 0.0091753054  -0.20351709 0.0017934581   0.20490459  -0.73794445    4.5173262 
 3747000    4.0169704    1.2686001    2.7483703  -0.22807038   0.84578144   0.99061307   0.74563752   -1.2298232            1  -0.14989906  -0.40465468   -0.4045061   0.35946361 -0.00064525991  0.050978282 -0.021452338  -0.30370572  -0.29130414   0.71426869        0.075    1.4419895        1e-10 1.5872638e-11    6.3001501    2.4428617    31.520363  0.011966775   -0.1916881 0.0076496215   0.20482331  -0.94852992  -0.33675169 
 3748000    4.0008409    1.2702081    2.7306328  -0.22988066    0.8468535    1.0022784   0.73937904   -1.2298232            1 -0.027738998  -0.30816214    -0.286251   0.51119615 -0.006607066  0.085735521  0.048025118  -0.18025469  -0.17080925   0.71717164        0.075    1.4244148        1e-10 1.5937148e-11    6.2746486    2.4488339    31.520363 -0.0037545152  -0.19653393 -0.0056250672   0.19477382  -0.43169204   0.41160964 
 3749000    4.0216709    1.2826141    2.7390568  -0.22884236   0.85512464    1.0014852   0.75392356   -1.2298232            1  -0.16289537  -0.39773531  -0.42612424   0.33517345 -0.017003631  0.041025885 -0.055185666  -0.31841124   -0.3058524   0.72072679        0.075    1.4105989        1e-10 1.6016151e-11    6.2436974    2.4510258    31.520363 -0.015842644  -0.20921653 -0.0053719765    0.2065166   -1.5383292   0.57401673 
 3750000    4.0272002     1.280861    2.7463391   -0.2303854   0.85395586     1.012318   0.74444943   -1.2298232            1  -0.11684144  -0.37578607  -0.39163067   0.41689242 0.0049321159   0.05597133  0.056881686  -0.27040303   -0.2613448   0.72078187        0.075    1.4143202        1e-10 1.6017375e-11    6.2432203    2.4497374    31.520363 0.0014261349    -0.199998 0.0013644718   0.18393639  -0.47971991   0.47553757 
 3751000    4.0073397    1.2711462    2.7361935  -0.23023727   0.84747892    1.0036424   0.73949338   -1.2298232            1  -0.19863711  -0.42922033  -0.41978531   0.25309431  -0.02144582  0.016406209 -0.023103754  -0.35117639  -0.34190208   0.71466135        0.075    1.4158118        1e-10 1.5881363e-11    6.2966886    2.4424224    31.520363 -0.00088575454  -0.18649588 -0.0041849136   0.20632825    1.3053357       1.1127 
 3752000    4.0367887    1.2830694    2.7537193  -0.22604665   0.85542817   0.99287996   0.76039212   -1.2298232            1  -0.10751577  -0.35530121  -0.37782635   0.41058024 -0.00050430211   0.02521314  0.031539371  -0.26436595  -0.24924445   0.71228045        0.075    1.4059854        1e-10 1.5828454e-11    6.3177362    2.4531398    31.520363 0.0094556703  -0.20573398 -0.0049675639    0.2068973   0.26770734   0.78057707 
 3753000    4.0187248    1.2780458     2.740679  -0.23238531   0.85207895     1.001707   0.74861647   -1.2298232            1   -0.2418017  -0.44961414  -0.45159116   0.17580019 0.0043549998   0.04467208 0.00063744185  -0.39622285  -0.38479039   0.72065579        0.075    1.4216417        1e-10 1.6014573e-11    6.2443126    2.4427663    31.520363 0.0006527664  -0.19387551 0.0078554605   0.16980458  -0.24354771   0.93862339 
 3754000    4.0580891     1.296035    2.7620541  -0.23030951   0.86407239    1.0059734   0.76595828   -1.2298232            1  -0.07723547  -0.33625369  -0.35039612    0.4549434 0.00098373356 -0.011157405  0.058134686  -0.23523381  -0.22083316   0.72407809        0.075    1.4236934        1e-10 1.6090624e-11    6.2147992     2.449528    31.520363 -0.00021319369  -0.18730833 0.0031812819   0.18559758   0.37254514   0.28930232 
 3755000     3.992688    1.2681241    2.7245638   -0.2348228   0.84546412    1.0138855   0.72899578   -1.2298232            1  -0.27867012  -0.49721742   -0.4807803   0.14198735 -0.0056266141  -0.10294527  0.062928551  -0.42904401  -0.42339724   0.71415295        0.075    1.4335258        1e-10 1.5870065e-11    6.3011712    2.4421022    31.520363 0.0028029768   -0.1958679 -0.0047782794   0.20111448   0.56375467   -2.1236497 
 3756000    3.9990929    1.2684464    2.7306465  -0.22440183   0.84567898   0.99164708    0.7447486   -1.2298232            1  -0.16239002  -0.39611026  -0.44669644   0.35563664  0.012701103   -0.0398655  0.010877856  -0.31601333  -0.30394271    0.7119131        0.075    1.4265802        1e-10 1.5820291e-11    6.3209962    2.4412182    31.520363 -0.0082480213  -0.21473018 -0.0033801201   0.22028463    1.6740351    3.4155883 
 3757000    4.0327343    1.2877268    2.7450075  -0.22721106   0.85853329     1.006816   0.75600243   -1.2298232            1  -0.11735388  -0.37370445  -0.39032098   0.41196379 0.0010068633 -0.00035734905 -0.0050552178  -0.27329857  -0.26107185   0.71741954        0.075    1.4264253        1e-10 1.5942656e-11    6.2724804    2.4531717    31.520363 0.0011681054   -0.1964222 0.0027192723   0.22375825    0.1514673   0.90046607 
 3758000    4.0506794    1.2976391    2.7530403  -0.22970971   0.86514188    1.0076336   0.76661907   -1.2298232            1  -0.18596356  -0.40087989  -0.40649212   0.24948134 -0.0072352393  0.040284594 -0.0077319549   -0.3440982  -0.32979824   0.71811142        0.075    1.4170125        1e-10 1.5958031e-11    6.2664371    2.4431188    31.520363 0.0020354895  -0.18484931 -0.0018434699   0.19406913  -0.55582474   0.88747369 
 3759000    4.0308005    1.2784365     2.752364   -0.2313158   0.85233943    0.9974186   0.75202484   -1.2298232            1 -0.084641635  -0.37276056  -0.31836975    0.4372054 -0.0030194744 -0.0016825861  0.032520328  -0.23976585  -0.22701818   0.71757643        0.075    1.4151797        1e-10 1.5946143e-11     6.271109    2.4462189    31.520363 -0.017422955  -0.19168737 0.0089761975   0.18278765   0.10424188   0.57297036 
 3760000     4.020498     1.290126     2.730372  -0.23325596   0.86013286     1.008483   0.75755545   -1.2298232            1  -0.22202437  -0.46407877  -0.44917711   0.24718276 -0.019968751 -0.012558572 -0.00062628815  -0.37828941  -0.36598031   0.72068991        0.075    1.4146316        1e-10 1.6015331e-11    6.2440169     2.456408    31.520363 8.9617015e-05  -0.19571125 -0.0071728838   0.19158702   0.42487764  0.036382876 
 3761000    4.0148934    1.2778538    2.7370397  -0.23345718   0.85195091   0.99568009   0.75257049   -1.2298232            1  -0.09171695  -0.35837953  -0.35429033   0.43751901 -0.002381038 -0.021657476  0.046432087  -0.24695372  -0.23384533   0.71489918        0.075    1.4289253        1e-10 1.5886648e-11    6.2945939    2.4455829    31.520363 0.00035446862  -0.19468204 -0.00023668997   0.19104254  -0.67177446    2.0563785 
 3762000    4.0282604    1.2836893    2.7445711  -0.23507786   0.85584148   0.99487909   0.75970807   -1.2298232            1 -0.096400315  -0.38804094  -0.31677994   0.41561993 0.0095964127 -0.033346212 -0.029488049  -0.25310939  -0.23841436   0.71483399        0.075    1.4231568        1e-10  1.58852e-11    6.2951679    2.4444198    31.520363 -0.001147156  -0.20622217 0.0019461285   0.19390935  -0.25578433     1.693627 
 3763000    4.0180793    1.2713572     2.746722  -0.23556462   0.84761963   0.98643931   0.75163623   -1.2298232            1  -0.16825064  -0.41268363  -0.43024968   0.33818141 0.0023206328 -0.033855219 -0.024287187  -0.32329469  -0.30905994   0.71810706        0.075    1.4262047        1e-10 1.5957935e-11    6.2664751    2.4502671    31.520363 -9.2938498e-07  -0.19569914 -0.007920402   0.18491227  -0.83837559    1.4448272 
 3764000    4.0016358    1.2596882    2.7419476  -0.22991306   0.83983987   0.98561364   0.73904341   -1.2298232            1  -0.20307286  -0.46355129  -0.44945596   0.30378867  0.010439484 -0.027089194 -0.006916381  -0.35551933  -0.34376431   0.71480359        0.075    1.4048601        1e-10 1.5884524e-11    6.2954357    2.4462687    31.520363 -0.0020301892   -0.2066944 0.00091508374    0.2135339  -0.99628312   0.13746003 
 3765000    4.0061324    1.2809393    2.7251931  -0.23210372   0.85400804    1.0046261   0.74986064   -1.2298232            1  -0.20631748  -0.45478114  -0.44012327   0.27595197  0.013488207  0.056920808 0.0013887025  -0.36099527  -0.34972286   0.71600313        0.075    1.4121819        1e-10 1.5911181e-11    6.2848887    2.4500843    31.520363 -0.0046917495  -0.17050102 0.0026339407   0.19767946   -1.7464251   -1.2898697 
 3766000    4.0217461    1.2858027    2.7359434   -0.2328512   0.85725047   0.99918134   0.75911501   -1.2298232            1  -0.15535394  -0.40532696  -0.43987763   0.37914278  0.016119688  0.053586161  0.029323491  -0.31194068  -0.29798211   0.72272444        0.075    1.4162476        1e-10 1.6060543e-11    6.2264395    2.4689247    31.520363 -0.0044306088  -0.20265387 -0.00070800054   0.19374321  -0.21879606    1.6682766 
 3767000    4.0148168    1.2753893    2.7394275  -0.22612116   0.85030782   0.99944453   0.74718519   -1.2298232            1  -0.16268465  -0.41866521  -0.39902962   0.32964088 -0.010421921  0.024575354  0.001982802  -0.31681056  -0.30535038   0.71933683        0.075    1.3960894        1e-10 1.5985263e-11     6.255762    2.4469315    31.520363 -0.0052514937  -0.18604747 0.0039781936   0.20189371  -0.76960907    1.3592987 
 3768000    4.0176629     1.265813    2.7518499  -0.22498737   0.84392324   0.99252119   0.74117281   -1.2298232            1   -0.1766691  -0.43745191  -0.44303887   0.35048347 -0.013266847 -0.015274634  0.044802083  -0.32955481  -0.31834657   0.70899323        0.075    1.3883289        1e-10 1.5755405e-11    6.3470282    2.4345908    31.520363 -0.0033168767  -0.19330335 0.0011088066   0.18374746    0.4512306    1.2728872 
 3769000    4.0076926    1.2622924    2.7454002  -0.22608469    0.8415761   0.98628148   0.74151916   -1.2298232            1 -0.084730432  -0.34918704  -0.36285212   0.45784787 -0.0080834694 -0.023411971  0.039162875  -0.23768758  -0.22551721   0.70807506        0.075    1.4091191        1e-10 1.5735001e-11    6.3552585    2.4410557    31.520363 0.0045111239   -0.1958237 0.0006144778   0.21188194  -0.74852211   0.43683579 
 3770000    4.0159243    1.2780888    2.7378355  -0.23080155    0.8521076    1.0013597    0.7489053   -1.2298232            1  -0.21660982  -0.45612395  -0.44110514   0.24739964 -0.013605613  -0.10572093  0.033677683  -0.37109054  -0.35954893   0.71970692        0.075    1.4079703        1e-10 1.5993487e-11    6.2525452    2.4559081    31.520363 0.0029078961  -0.23304845 -0.0011646625   0.19937816 -0.023659014  -0.60811051 
 3771000    4.0094138     1.262148    2.7472658  -0.23642165   0.84147978   0.98608059   0.74149519   -1.2298232            1   -0.1566019  -0.41616497  -0.44620289   0.39256216 0.0070117183 -0.046439467 -0.040145836  -0.30955411     -0.29736   0.72699785        0.075    1.4055955        1e-10 1.6155508e-11    6.1898395    2.4578221    31.520363 -0.0043882898  -0.19171047 0.0013445373   0.19123563  -0.55651411    2.6987614 
 3772000    4.0211074    1.2718679    2.7492395  -0.23385304   0.84796008   0.99714133   0.74480639   -1.2298232            1  -0.10547781  -0.36692647  -0.34585829   0.39635133 -0.00093099986  0.061219792 -0.006072292  -0.25911303  -0.24781477   0.71796138        0.075    1.4030719        1e-10 1.5954697e-11    6.2677466    2.4465832    31.520363 0.00026618335  -0.17493457 -0.0040277055   0.18760978  -0.40420353  -0.26944301 
 3773000    4.0152236    1.2855043    2.7297193  -0.22564762   0.85705156    1.0073541   0.75312281   -1.2298232            1   -0.0898891  -0.34207695  -0.35988493   0.43229458 0.0041742341   0.04127997 -0.027211365   -0.2452398  -0.23368388   0.71054056        0.075    1.4199682        1e-10 1.578979e-11    6.3332064    2.4461266    31.520363 0.0027877837  -0.19783809 0.0068623028   0.21045521  -0.76643983    1.2626801 
 3774000    4.0199231    1.2756321     2.744291  -0.22836029   0.85046974   0.99680184   0.74928793   -1.2298232            1  -0.20789783  -0.47074032  -0.45138239   0.29842923 0.0015048237 -0.046472959 -0.015083411  -0.36245748  -0.35018633   0.71679947        0.075    1.4168038        1e-10 1.5928877e-11    6.2779065    2.4431423    31.520363 0.0042222428  -0.17453017 -0.011804111   0.22356673  -0.12844606    1.6443392 
 3775000    4.0050658    1.2641581    2.7409076  -0.23176266   0.84281997    0.9855942   0.74409953   -1.2298232            1 -0.083476304  -0.37045091  -0.33173734   0.45175934 0.0027117551  0.034317655 -0.040863951  -0.23696572  -0.22416497   0.71892537        0.075    1.4106674        1e-10 1.5976119e-11    6.2593423    2.4452959    31.520363 0.0020553419   -0.2068293 0.0027085275   0.19141944 -0.036894456    5.1910436 
