9376
Atoms. Timestep: 700000
1 0 3.55271e-15 10.7118
1 0.793701 29.2063 10.7118
1 0.843976 29.9394 9.87306
1 0.0743392 29.1745 9.87172
1 1.5874 3.55271e-15 10.7118
1 2.3811 29.2063 10.7118
1 2.39864 29.9418 9.87509
1 1.60828 29.1749 9.88523
1 3.1748 3.55271e-15 10.7118
1 3.9685 29.2063 10.7118
1 3.95617 29.9297 9.88611
1 3.16188 29.1934 9.92267
1 4.7622 3.55271e-15 10.7118
1 5.5559 29.2063 10.7118
1 5.56927 29.922 9.87215
1 4.78508 29.1669 9.89723
1 6.3496 3.55271e-15 10.7118
1 7.1433 29.2063 10.7118
1 7.1425 29.9149 9.88653
1 6.33443 29.1567 9.90994
1 7.93701 3.55271e-15 10.7118
1 8.73071 29.2063 10.7118
1 8.7111 29.9189 9.88798
1 7.91457 29.1618 9.90164
1 9.52441 3.55271e-15 10.7118
1 10.3181 29.2063 10.7118
1 10.321 29.9405 9.90077
1 9.52883 29.1617 9.88716
1 11.1118 3.55271e-15 10.7118
1 11.9055 29.2063 10.7118
1 11.8881 29.9293 9.8848
1 11.0978 29.1567 9.91317
1 12.6992 3.55271e-15 10.7118
1 13.4929 29.2063 10.7118
1 13.4948 29.9231 9.88235
1 12.6828 29.1851 9.91598
1 14.2866 3.55271e-15 10.7118
1 15.0803 29.2063 10.7118
1 15.073 29.9328 9.89241
1 14.3032 29.1618 9.90491
1 15.874 3.55271e-15 10.7118
1 16.6677 29.2063 10.7118
1 16.643 29.9388 9.90146
1 15.8678 29.1669 9.91023
1 17.4614 3.55271e-15 10.7118
1 18.2551 29.2063 10.7118
1 18.2402 29.9437 9.86945
1 17.4487 29.1746 9.91237
1 19.0488 3.55271e-15 10.7118
1 19.8425 29.2063 10.7118
1 19.8391 29.9356 9.89546
1 19.0524 29.1823 9.89928
1 20.6362 3.55271e-15 10.7118
1 21.4299 29.2063 10.7118
1 21.4407 29.9174 9.87896
1 20.6236 29.1668 9.93004
1 22.2236 3.55271e-15 10.7118
1 23.0173 29.2063 10.7118
1 23.035 29.945 9.87733
1 22.2333 29.1898 9.91338
1 23.811 3.55271e-15 10.7118
1 24.6047 29.2063 10.7118
1 24.6209 29.9347 9.85776
1 23.8087 29.189 9.9038
1 25.3984 3.55271e-15 10.7118
1 26.1921 29.2063 10.7118
1 26.1894 29.9319 9.89178
1 25.4034 29.2023 9.91543
1 26.9858 3.55271e-15 10.7118
1 27.7795 29.2063 10.7118
1 27.7678 29.9419 9.89411
1 26.9849 29.1667 9.90051
1 28.5732 3.55271e-15 10.7118
1 29.3669 29.2063 10.7118
1 29.322 29.9586 9.85301
1 28.5174 29.1764 9.89789
1 0 28.4126 10.7118
1 0.793701 27.6189 10.7118
1 0.81603 28.4202 9.89077
1 0.0993439 27.6228 9.85925
1 1.5874 28.4126 10.7118
1 2.3811 27.6189 10.7118
1 2.39435 28.408 9.90302
1 1.60092 27.5985 9.93876
1 3.1748 28.4126 10.7118
1 3.9685 27.6189 10.7118
1 3.97918 28.4111 9.88769
1 3.17914 27.6276 9.92222
1 4.7622 28.4126 10.7118
1 5.5559 27.6189 10.7118
1 5.58669 28.3889 9.90888
1 4.75409 27.6159 9.91577
1 6.3496 28.4126 10.7118
1 7.1433 27.6189 10.7118
1 7.14194 28.3606 9.93816
1 6.33501 27.5885 9.93925
1 7.93701 28.4126 10.7118
1 8.73071 27.6189 10.7118
1 8.74526 28.3815 9.92483
1 7.9201 27.6028 9.91139
1 9.52441 28.4126 10.7118
1 10.3181 27.6189 10.7118
1 10.3192 28.404 9.90594
1 9.50908 27.6039 9.93455
1 11.1118 28.4126 10.7118
1 11.9055 27.6189 10.7118
1 11.8732 28.3892 9.90992
1 11.1184 27.5993 9.90271
1 12.6992 28.4126 10.7118
1 13.4929 27.6189 10.7118
1 13.4942 28.4143 9.94463
1 12.6965 27.6255 9.94259
1 14.2866 28.4126 10.7118
1 15.0803 27.6189 10.7118
1 15.0905 28.3841 9.92157
1 14.2684 27.617 9.90773
1 15.874 28.4126 10.7118
1 16.6677 27.6189 10.7118
1 16.6796 28.4066 9.92005
1 15.8845 27.6018 9.93531
1 17.4614 28.4126 10.7118
1 18.2551 27.6189 10.7118
1 18.2614 28.4312 9.91973
1 17.466 27.6129 9.93612
1 19.0488 28.4126 10.7118
1 19.8425 27.6189 10.7118
1 19.842 28.3906 9.89877
1 19.0575 27.6284 9.92723
1 20.6362 28.4126 10.7118
1 21.4299 27.6189 10.7118
1 21.4505 28.417 9.9077
1 20.6532 27.6031 9.93198
1 22.2236 28.4126 10.7118
1 23.0173 27.6189 10.7118
1 23.0038 28.4316 9.91669
1 22.2309 27.6098 9.92412
1 23.811 28.4126 10.7118
1 24.6047 27.6189 10.7118
1 24.6178 28.3963 9.90323
1 23.8115 27.618 9.92742
1 25.3984 28.4126 10.7118
1 26.1921 27.6189 10.7118
1 26.1891 28.4374 9.90927
1 25.3995 27.5971 9.88682
1 26.9858 28.4126 10.7118
1 27.7795 27.6189 10.7118
1 27.7699 28.4065 9.92426
1 26.9493 27.6244 9.89435
1 28.5732 28.4126 10.7118
1 29.3669 27.6189 10.7118
1 29.2993 28.42 9.87056
1 28.5487 27.6005 9.91255
1 0 26.8252 10.7118
1 0.793701 26.0315 10.7118
1 0.856311 26.806 9.90708
1 0.064005 26.0408 9.89997
1 1.5874 26.8252 10.7118
1 2.3811 26.0315 10.7118
1 2.379 26.8278 9.90263
1 1.62563 26.0215 9.92489
1 3.1748 26.8252 10.7118
1 3.9685 26.0315 10.7118
1 3.99174 26.8454 9.91833
1 3.18331 26.0512 9.90774
1 4.7622 26.8252 10.7118
1 5.5559 26.0315 10.7118
1 5.54351 26.8206 9.92843
1 4.76147 26.0401 9.92148
1 6.3496 26.8252 10.7118
1 7.1433 26.0315 10.7118
1 7.13689 26.8284 9.91083
1 6.34627 26.0488 9.91998
1 7.93701 26.8252 10.7118
1 8.73071 26.0315 10.7118
1 8.71381 26.8029 9.92206
1 7.94402 26.0101 9.9136
1 9.52441 26.8252 10.7118
1 10.3181 26.0315 10.7118
1 10.3215 26.8089 9.93313
1 9.52454 26.0174 9.93733
1 11.1118 26.8252 10.7118
1 11.9055 26.0315 10.7118
1 11.8941 26.8294 9.93245
1 11.08 26.0519 9.93989
1 12.6992 26.8252 10.7118
1 13.4929 26.0315 10.7118
1 13.5026 26.8223 9.90615
1 12.7011 26.0318 9.92332
1 14.2866 26.8252 10.7118
1 15.0803 26.0315 10.7118
1 15.0808 26.8546 9.9242
1 14.3201 26.0402 9.88965
1 15.874 26.8252 10.7118
1 16.6677 26.0315 10.7118
1 16.677 26.8388 9.92809
1 15.899 26.0258 9.93475
1 17.4614 26.8252 10.7118
1 18.2551 26.0315 10.7118
1 18.2487 26.843 9.94191
1 17.4534 26.0481 9.93811
1 19.0488 26.8252 10.7118
1 19.8425 26.0315 10.7118
1 19.8546 26.8126 9.91534
1 19.0513 26.0256 9.94494
1 20.6362 26.8252 10.7118
1 21.4299 26.0315 10.7118
1 21.4311 26.8261 9.90612
1 20.6492 26.0125 9.90796
1 22.2236 26.8252 10.7118
1 23.0173 26.0315 10.7118
1 23.0246 26.8151 9.91647
1 22.2152 26.014 9.90421
1 23.811 26.8252 10.7118
1 24.6047 26.0315 10.7118
1 24.597 26.8471 9.93128
1 23.816 26.041 9.90284
1 25.3984 26.8252 10.7118
1 26.1921 26.0315 10.7118
1 26.1949 26.8367 9.87789
1 25.4161 26.0237 9.93931
1 26.9858 26.8252 10.7118
1 27.7795 26.0315 10.7118
1 27.7657 26.8492 9.91679
1 27.0008 26.0225 9.91566
1 28.5732 26.8252 10.7118
1 29.3669 26.0315 10.7118
1 29.3386 26.8338 9.90824
1 28.5683 26.0282 9.9059
1 0 25.2378 10.7118
1 0.793701 24.4441 10.7118
1 0.828384 25.2414 9.92343
1 0.0828536 24.4547 9.91124
1 1.5874 25.2378 10.7118
1 2.3811 24.4441 10.7118
1 2.3763 25.2407 9.93102
1 1.57284 24.4239 9.89694
1 3.1748 25.2378 10.7118
1 3.9685 24.4441 10.7118
1 3.96936 25.2511 9.92155
1 3.17672 24.4471 9.92037
1 4.7622 25.2378 10.7118
1 5.5559 24.4441 10.7118
1 5.54247 25.2469 9.90736
1 4.77392 24.4404 9.92616
1 6.3496 25.2378 10.7118
1 7.1433 24.4441 10.7118
1 7.13628 25.2404 9.93897
1 6.34337 24.4335 9.92494
1 7.93701 25.2378 10.7118
1 8.73071 24.4441 10.7118
1 8.74092 25.2265 9.93323
1 7.93085 24.423 9.91352
1 9.52441 25.2378 10.7118
1 10.3181 24.4441 10.7118
1 10.3377 25.2458 9.91968
1 9.52219 24.4485 9.9404
1 11.1118 25.2378 10.7118
1 11.9055 24.4441 10.7118
1 11.9139 25.2655 9.93867
1 11.1486 24.4379 9.90737
1 12.6992 25.2378 10.7118
1 13.4929 24.4441 10.7118
1 13.4934 25.2378 9.92059
1 12.6806 24.4369 9.93521
1 14.2866 25.2378 10.7118
1 15.0803 24.4441 10.7118
1 15.1082 25.2577 9.92895
1 14.3001 24.4483 9.92102
1 15.874 25.2378 10.7118
1 16.6677 24.4441 10.7118
1 16.659 25.2246 9.93427
1 15.8815 24.4212 9.92777
1 17.4614 25.2378 10.7118
1 18.2551 24.4441 10.7118
1 18.2537 25.2176 9.93593
1 17.4266 24.4402 9.94837
1 19.0488 25.2378 10.7118
1 19.8425 24.4441 10.7118
1 19.8754 25.2325 9.91141
1 19.0538 24.42 9.92521
1 20.6362 25.2378 10.7118
1 21.4299 24.4441 10.7118
1 21.4438 25.2134 9.93065
1 20.6455 24.4156 9.91745
1 22.2236 25.2378 10.7118
1 23.0173 24.4441 10.7118
1 23.0217 25.2493 9.93455
1 22.2395 24.4588 9.94751
1 23.811 25.2378 10.7118
1 24.6047 24.4441 10.7118
1 24.5787 25.2514 9.91128
1 23.8093 24.4534 9.91435
1 25.3984 25.2378 10.7118
1 26.1921 24.4441 10.7118
1 26.2099 25.2239 9.91508
1 25.3772 24.4457 9.92169
1 26.9858 25.2378 10.7118
1 27.7795 24.4441 10.7118
1 27.7804 25.2572 9.93189
1 26.9972 24.4692 9.91955
1 28.5732 25.2378 10.7118
1 29.3669 24.4441 10.7118
1 29.3174 25.2424 9.85444
1 28.5726 24.4325 9.93179
1 0 23.6504 10.7118
1 0.793701 22.8567 10.7118
1 0.832769 23.6552 9.8986
1 0.0684294 22.8545 9.8904
1 1.5874 23.6504 10.7118
1 2.3811 22.8567 10.7118
1 2.36126 23.6501 9.90854
1 1.61372 22.8701 9.92672
1 3.1748 23.6504 10.7118
1 3.9685 22.8567 10.7118
1 4.00291 23.6438 9.91799
1 3.1635 22.8612 9.93188
1 4.7622 23.6504 10.7118
1 5.5559 22.8567 10.7118
1 5.54707 23.6639 9.92645
1 4.74528 22.8334 9.91862
1 6.3496 23.6504 10.7118
1 7.1433 22.8567 10.7118
1 7.15036 23.6469 9.92989
1 6.35123 22.8584 9.92023
1 7.93701 23.6504 10.7118
1 8.73071 22.8567 10.7118
1 8.71421 23.6264 9.91291
1 7.93774 22.8527 9.92462
1 9.52441 23.6504 10.7118
1 10.3181 22.8567 10.7118
1 10.2977 23.6485 9.90851
1 9.54522 22.8383 9.91365
1 11.1118 23.6504 10.7118
1 11.9055 22.8567 10.7118
1 11.9018 23.6338 9.92638
1 11.0973 22.8559 9.9223
1 12.6992 23.6504 10.7118
1 13.4929 22.8567 10.7118
1 13.5027 23.667 9.92233
1 12.7252 22.861 9.8947
1 14.2866 23.6504 10.7118
1 15.0803 22.8567 10.7118
1 15.0594 23.6416 9.90469
1 14.2949 22.8394 9.92699
1 15.874 23.6504 10.7118
1 16.6677 22.8567 10.7118
1 16.6708 23.6369 9.93968
1 15.8954 22.8793 9.90431
1 17.4614 23.6504 10.7118
1 18.2551 22.8567 10.7118
1 18.2414 23.6651 9.91471
1 17.4542 22.8718 9.92893
1 19.0488 23.6504 10.7118
1 19.8425 22.8567 10.7118
1 19.8458 23.6572 9.93364
1 19.0344 22.8622 9.90288
1 20.6362 23.6504 10.7118
1 21.4299 22.8567 10.7118
1 21.4457 23.65 9.91633
1 20.6422 22.8594 9.91041
1 22.2236 23.6504 10.7118
1 23.0173 22.8567 10.7118
1 23.0312 23.6798 9.92396
1 22.231 22.8582 9.89089
1 23.811 23.6504 10.7118
1 24.6047 22.8567 10.7118
1 24.589 23.6595 9.94572
1 23.8191 22.8813 9.92847
1 25.3984 23.6504 10.7118
1 26.1921 22.8567 10.7118
1 26.1681 23.6608 9.93656
1 25.3812 22.8818 9.91153
1 26.9858 23.6504 10.7118
1 27.7795 22.8567 10.7118
1 27.761 23.6589 9.90802
1 26.9576 22.8803 9.927
1 28.5732 23.6504 10.7118
1 29.3669 22.8567 10.7118
1 29.3207 23.6312 9.90459
1 28.5345 22.8665 9.90576
1 0 22.063 10.7118
1 0.793701 21.2693 10.7118
1 0.825942 22.0482 9.92456
1 0.0778296 21.254 9.884
1 1.5874 22.063 10.7118
1 2.3811 21.2693 10.7118
1 2.38298 22.0647 9.91968
1 1.61314 21.2619 9.93537
1 3.1748 22.063 10.7118
1 3.9685 21.2693 10.7118
1 3.97756 22.0556 9.907
1 3.20796 21.2502 9.92358
1 4.7622 22.063 10.7118
1 5.5559 21.2693 10.7118
1 5.57816 22.049 9.90257
1 4.75047 21.2843 9.91375
1 6.3496 22.063 10.7118
1 7.1433 21.2693 10.7118
1 7.13399 22.0531 9.89687
1 6.33782 21.2538 9.89636
1 7.93701 22.063 10.7118
1 8.73071 21.2693 10.7118
1 8.75039 22.0624 9.89514
1 7.92997 21.2571 9.9085
1 9.52441 22.063 10.7118
1 10.3181 21.2693 10.7118
1 10.3136 22.0539 9.91439
1 9.51783 21.2603 9.87991
1 11.1118 22.063 10.7118
1 11.9055 21.2693 10.7118
1 11.9204 22.0723 9.90518
1 11.1017 21.2598 9.92364
1 12.6992 22.063 10.7118
1 13.4929 21.2693 10.7118
1 13.5068 22.0513 9.90599
1 12.6937 21.278 9.92384
1 14.2866 22.063 10.7118
1 15.0803 21.2693 10.7118
1 15.0894 22.0566 9.93265
1 14.309 21.2801 9.92694
1 15.874 22.063 10.7118
1 16.6677 21.2693 10.7118
1 16.6497 22.0869 9.89468
1 15.9022 21.2607 9.90782
1 17.4614 22.063 10.7118
1 18.2551 21.2693 10.7118
1 18.2236 22.0571 9.91797
1 17.4439 21.264 9.91753
1 19.0488 22.063 10.7118
1 19.8425 21.2693 10.7118
1 19.8424 22.0754 9.9235
1 19.0314 21.2693 9.9366
1 20.6362 22.063 10.7118
1 21.4299 21.2693 10.7118
1 21.4585 22.0665 9.9353
1 20.6533 21.252 9.92447
1 22.2236 22.063 10.7118
1 23.0173 21.2693 10.7118
1 23.045 22.073 9.89611
1 22.2213 21.2762 9.90745
1 23.811 22.063 10.7118
1 24.6047 21.2693 10.7118
1 24.5911 22.0806 9.90381
1 23.8195 21.2353 9.91227
1 25.3984 22.063 10.7118
1 26.1921 21.2693 10.7118
1 26.1683 22.0777 9.91749
1 25.4024 21.2772 9.89678
1 26.9858 22.063 10.7118
1 27.7795 21.2693 10.7118
1 27.7792 22.0581 9.90333
1 26.981 21.261 9.9347
1 28.5732 22.063 10.7118
1 29.3669 21.2693 10.7118
1 29.315 22.0625 9.86239
1 28.5624 21.2762 9.8984
1 0 20.4756 10.7118
1 0.793701 19.6819 10.7118
1 0.832779 20.4708 9.91973
1 0.0508439 19.6557 9.88376
1 1.5874 20.4756 10.7118
1 2.3811 19.6819 10.7118
1 2.39142 20.4544 9.91185
1 1.5861 19.6905 9.94198
1 3.1748 20.4756 10.7118
1 3.9685 19.6819 10.7118
1 3.97002 20.4815 9.92377
1 3.17058 19.658 9.9196
1 4.7622 20.4756 10.7118
1 5.5559 19.6819 10.7118
1 5.54838 20.4685 9.92618
1 4.72839 19.6803 9.93165
1 6.3496 20.4756 10.7118
1 7.1433 19.6819 10.7118
1 7.12295 20.4832 9.91868
1 6.32709 19.6865 9.9078
1 7.93701 20.4756 10.7118
1 8.73071 19.6819 10.7118
1 8.7359 20.4752 9.90626
1 7.93245 19.6909 9.91792
1 9.52441 20.4756 10.7118
1 10.3181 19.6819 10.7118
1 10.2998 20.4874 9.92446
1 9.52231 19.6968 9.91827
1 11.1118 20.4756 10.7118
1 11.9055 19.6819 10.7118
1 11.9118 20.4816 9.92572
1 11.1207 19.696 9.91858
1 12.6992 20.4756 10.7118
1 13.4929 19.6819 10.7118
1 13.4893 20.4823 9.96852
1 12.7021 19.6551 9.91136
1 14.2866 20.4756 10.7118
1 15.0803 19.6819 10.7118
1 15.1094 20.4435 9.90919
1 14.2897 19.6665 9.91954
1 15.874 20.4756 10.7118
1 16.6677 19.6819 10.7118
1 16.6418 20.4844 9.91952
1 15.9057 19.6859 9.90567
1 17.4614 20.4756 10.7118
1 18.2551 19.6819 10.7118
1 18.2689 20.4861 9.94167
1 17.4447 19.7169 9.93655
1 19.0488 20.4756 10.7118
1 19.8425 19.6819 10.7118
1 19.8541 20.4938 9.92119
1 19.0627 19.6841 9.91757
1 20.6362 20.4756 10.7118
1 21.4299 19.6819 10.7118
1 21.4432 20.5025 9.88415
1 20.6531 19.6605 9.92256
1 22.2236 20.4756 10.7118
1 23.0173 19.6819 10.7118
1 23.0133 20.4834 9.92118
1 22.2055 19.6888 9.94081
1 23.811 20.4756 10.7118
1 24.6047 19.6819 10.7118
1 24.577 20.477 9.91241
1 23.8142 19.6598 9.90903
1 25.3984 20.4756 10.7118
1 26.1921 19.6819 10.7118
1 26.1626 20.4961 9.93125
1 25.3825 19.664 9.91877
1 26.9858 20.4756 10.7118
1 27.7795 19.6819 10.7118
1 27.7765 20.4728 9.93377
1 26.9585 19.6766 9.92513
1 28.5732 20.4756 10.7118
1 29.3669 19.6819 10.7118
1 29.3011 20.4622 9.89222
1 28.535 19.6693 9.90975
1 0 18.8882 10.7118
1 0.793701 18.0945 10.7118
1 0.820875 18.877 9.9225
1 0.0408376 18.0677 9.89961
1 1.5874 18.8882 10.7118
1 2.3811 18.0945 10.7118
1 2.37579 18.8988 9.92812
1 1.60104 18.083 9.91075
1 3.1748 18.8882 10.7118
1 3.9685 18.0945 10.7118
1 3.94338 18.9057 9.9199
1 3.15625 18.097 9.901
1 4.7622 18.8882 10.7118
1 5.5559 18.0945 10.7118
1 5.54835 18.8932 9.91944
1 4.75412 18.0955 9.91407
1 6.3496 18.8882 10.7118
1 7.1433 18.0945 10.7118
1 7.13201 18.8832 9.92751
1 6.33683 18.0964 9.91488
1 7.93701 18.8882 10.7118
1 8.73071 18.0945 10.7118
1 8.73941 18.8839 9.92284
1 7.93268 18.0627 9.92237
1 9.52441 18.8882 10.7118
1 10.3181 18.0945 10.7118
1 10.3132 18.8802 9.93416
1 9.54346 18.0814 9.93493
1 11.1118 18.8882 10.7118
1 11.9055 18.0945 10.7118
1 11.9038 18.8722 9.91628
1 11.1236 18.1188 9.91705
1 12.6992 18.8882 10.7118
1 13.4929 18.0945 10.7118
1 13.4764 18.8739 9.92912
1 12.6954 18.114 9.91073
1 14.2866 18.8882 10.7118
1 15.0803 18.0945 10.7118
1 15.0812 18.8936 9.92589
1 14.2922 18.0879 9.9269
1 15.874 18.8882 10.7118
1 16.6677 18.0945 10.7118
1 16.6878 18.8907 9.89478
1 15.8632 18.0719 9.90578
1 17.4614 18.8882 10.7118
1 18.2551 18.0945 10.7118
1 18.2529 18.8892 9.92699
1 17.4697 18.0986 9.923
1 19.0488 18.8882 10.7118
1 19.8425 18.0945 10.7118
1 19.864 18.8776 9.9222
1 19.0442 18.0916 9.9234
1 20.6362 18.8882 10.7118
1 21.4299 18.0945 10.7118
1 21.4269 18.8749 9.92848
1 20.6243 18.0825 9.90736
1 22.2236 18.8882 10.7118
1 23.0173 18.0945 10.7118
1 22.9994 18.8822 9.92439
1 22.2323 18.0584 9.91778
1 23.811 18.8882 10.7118
1 24.6047 18.0945 10.7118
1 24.5771 18.8755 9.93163
1 23.7869 18.0934 9.91526
1 25.3984 18.8882 10.7118
1 26.1921 18.0945 10.7118
1 26.1736 18.8781 9.91643
1 25.3956 18.0981 9.93907
1 26.9858 18.8882 10.7118
1 27.7795 18.0945 10.7118
1 27.7716 18.8893 9.92735
1 26.981 18.085 9.90654
1 28.5732 18.8882 10.7118
1 29.3669 18.0945 10.7118
1 29.2855 18.8945 9.88821
1 28.5442 18.1082 9.89097
1 0 17.3008 10.7118
1 0.793701 16.5071 10.7118
1 0.806607 17.3198 9.91182
1 0.0537684 16.5115 9.85939
1 1.5874 17.3008 10.7118
1 2.3811 16.5071 10.7118
1 2.38532 17.293 9.91445
1 1.58482 16.4819 9.9013
1 3.1748 17.3008 10.7118
1 3.9685 16.5071 10.7118
1 3.95624 17.2831 9.92418
1 3.17734 16.5102 9.91437
1 4.7622 17.3008 10.7118
1 5.5559 16.5071 10.7118
1 5.54413 17.3105 9.91086
1 4.76751 16.4927 9.89043
1 6.3496 17.3008 10.7118
1 7.1433 16.5071 10.7118
1 7.11564 17.3003 9.91606
1 6.35147 16.504 9.92491
1 7.93701 17.3008 10.7118
1 8.73071 16.5071 10.7118
1 8.74197 17.298 9.92819
1 7.92113 16.5414 9.91769
1 9.52441 17.3008 10.7118
1 10.3181 16.5071 10.7118
1 10.3062 17.2838 9.90851
1 9.50475 16.5012 9.92451
1 11.1118 17.3008 10.7118
1 11.9055 16.5071 10.7118
1 11.897 17.3313 9.92676
1 11.117 16.5067 9.91739
1 12.6992 17.3008 10.7118
1 13.4929 16.5071 10.7118
1 13.4779 17.3254 9.91638
1 12.6893 16.5257 9.91457
1 14.2866 17.3008 10.7118
1 15.0803 16.5071 10.7118
1 15.0704 17.2886 9.90924
1 14.28 16.5079 9.90767
1 15.874 17.3008 10.7118
1 16.6677 16.5071 10.7118
1 16.6744 17.2718 9.91338
1 15.8654 16.5018 9.90534
1 17.4614 17.3008 10.7118
1 18.2551 16.5071 10.7118
1 18.2686 17.3003 9.89948
1 17.4603 16.512 9.91412
1 19.0488 17.3008 10.7118
1 19.8425 16.5071 10.7118
1 19.8333 17.282 9.88754
1 19.0539 16.4814 9.90859
1 20.6362 17.3008 10.7118
1 21.4299 16.5071 10.7118
1 21.436 17.2841 9.90434
1 20.6249 16.4824 9.90849
1 22.2236 17.3008 10.7118
1 23.0173 16.5071 10.7118
1 23.0206 17.274 9.90761
1 22.2147 16.5231 9.91689
1 23.811 17.3008 10.7118
1 24.6047 16.5071 10.7118
1 24.5713 17.3183 9.90951
1 23.8217 16.5066 9.91434
1 25.3984 17.3008 10.7118
1 26.1921 16.5071 10.7118
1 26.1912 17.272 9.91848
1 25.3793 16.4997 9.89846
1 26.9858 17.3008 10.7118
1 27.7795 16.5071 10.7118
1 27.7661 17.2968 9.9195
1 26.965 16.4937 9.91683
1 28.5732 17.3008 10.7118
1 29.3669 16.5071 10.7118
1 29.2976 17.2881 9.88762
1 28.5475 16.4979 9.92637
1 0 15.7134 10.7118
1 0.793701 14.9197 10.7118
1 0.799068 15.6877 9.89716
1 0.0601776 14.9024 9.8853
1 1.5874 15.7134 10.7118
1 2.3811 14.9197 10.7118
1 2.38434 15.7081 9.93839
1 1.60454 14.9169 9.90823
1 3.1748 15.7134 10.7118
1 3.9685 14.9197 10.7118
1 4.00096 15.7178 9.93832
1 3.20475 14.9298 9.91888
1 4.7622 15.7134 10.7118
1 5.5559 14.9197 10.7118
1 5.58786 15.7285 9.9275
1 4.79153 14.9441 9.91972
1 6.3496 15.7134 10.7118
1 7.1433 14.9197 10.7118
1 7.13339 15.7386 9.90666
1 6.35014 14.9166 9.92054
1 7.93701 15.7134 10.7118
1 8.73071 14.9197 10.7118
1 8.69801 15.6997 9.92619
1 7.9196 14.9016 9.91343
1 9.52441 15.7134 10.7118
1 10.3181 14.9197 10.7118
1 10.324 15.715 9.93022
1 9.52053 14.9592 9.92971
1 11.1118 15.7134 10.7118
1 11.9055 14.9197 10.7118
1 11.9188 15.7382 9.93163
1 11.1307 14.9309 9.90798
1 12.6992 15.7134 10.7118
1 13.4929 14.9197 10.7118
1 13.4651 15.7251 9.91002
1 12.6762 14.9257 9.91983
1 14.2866 15.7134 10.7118
1 15.0803 14.9197 10.7118
1 15.0743 15.7032 9.91789
1 14.2722 14.9557 9.92208
1 15.874 15.7134 10.7118
1 16.6677 14.9197 10.7118
1 16.6517 15.7091 9.92041
1 15.8608 14.9208 9.9107
1 17.4614 15.7134 10.7118
1 18.2551 14.9197 10.7118
1 18.2552 15.6999 9.93219
1 17.4703 14.9238 9.91773
1 19.0488 15.7134 10.7118
1 19.8425 14.9197 10.7118
1 19.8389 15.7134 9.91442
1 19.0659 14.9119 9.92443
1 20.6362 15.7134 10.7118
1 21.4299 14.9197 10.7118
1 21.4467 15.693 9.90115
1 20.6329 14.8934 9.89887
1 22.2236 15.7134 10.7118
1 23.0173 14.9197 10.7118
1 22.9935 15.7228 9.90974
1 22.2149 14.9061 9.92411
1 23.811 15.7134 10.7118
1 24.6047 14.9197 10.7118
1 24.6051 15.7149 9.90698
1 23.8059 14.9172 9.95677
1 25.3984 15.7134 10.7118
1 26.1921 14.9197 10.7118
1 26.1856 15.7183 9.91999
1 25.3892 14.9066 9.91071
1 26.9858 15.7134 10.7118
1 27.7795 14.9197 10.7118
1 27.7837 15.7399 9.95594
1 26.9926 14.9221 9.91852
1 28.5732 15.7134 10.7118
1 29.3669 14.9197 10.7118
1 29.3203 15.7093 9.88759
1 28.5401 14.9315 9.89132
1 0 14.126 10.7118
1 0.793701 13.3323 10.7118
1 0.837856 14.1392 9.90917
1 0.0618882 13.3548 9.90588
1 1.5874 14.126 10.7118
1 2.3811 13.3323 10.7118
1 2.40369 14.1392 9.91685
1 1.63043 13.3299 9.91882
1 3.1748 14.126 10.7118
1 3.9685 13.3323 10.7118
1 3.97003 14.1383 9.933
1 3.1857 13.3277 9.92295
1 4.7622 14.126 10.7118
1 5.5559 13.3323 10.7118
1 5.52235 14.1376 9.89904
1 4.77756 13.3409 9.91679
1 6.3496 14.126 10.7118
1 7.1433 13.3323 10.7118
1 7.11754 14.1185 9.91764
1 6.342 13.328 9.92463
1 7.93701 14.126 10.7118
1 8.73071 13.3323 10.7118
1 8.74155 14.1302 9.92547
1 7.9264 13.323 9.94221
1 9.52441 14.126 10.7118
1 10.3181 13.3323 10.7118
1 10.3176 14.1125 9.91423
1 9.52066 13.3436 9.90524
1 11.1118 14.126 10.7118
1 11.9055 13.3323 10.7118
1 11.8902 14.1155 9.92409
1 11.109 13.3176 9.94157
1 12.6992 14.126 10.7118
1 13.4929 13.3323 10.7118
1 13.4868 14.1313 9.92584
1 12.6856 13.3447 9.90909
1 14.2866 14.126 10.7118
1 15.0803 13.3323 10.7118
1 15.0629 14.1177 9.90504
1 14.29 13.3452 9.9222
1 15.874 14.126 10.7118
1 16.6677 13.3323 10.7118
1 16.6571 14.1514 9.9143
1 15.8635 13.3194 9.93703
1 17.4614 14.126 10.7118
1 18.2551 13.3323 10.7118
1 18.2584 14.126 9.94052
1 17.4504 13.3305 9.95437
1 19.0488 14.126 10.7118
1 19.8425 13.3323 10.7118
1 19.8652 14.0844 9.91361
1 19.0256 13.3258 9.92001
1 20.6362 14.126 10.7118
1 21.4299 13.3323 10.7118
1 21.4182 14.1205 9.91332
1 20.6534 13.323 9.92295
1 22.2236 14.126 10.7118
1 23.0173 13.3323 10.7118
1 23.0124 14.1418 9.91334
1 22.2169 13.3286 9.96496
1 23.811 14.126 10.7118
1 24.6047 13.3323 10.7118
1 24.6141 14.108 9.92753
1 23.8168 13.3319 9.9253
1 25.3984 14.126 10.7118
1 26.1921 13.3323 10.7118
1 26.1964 14.1379 9.9398
1 25.385 13.3462 9.90128
1 26.9858 14.126 10.7118
1 27.7795 13.3323 10.7118
1 27.7604 14.1102 9.89222
1 26.9834 13.3278 9.90717
1 28.5732 14.126 10.7118
1 29.3669 13.3323 10.7118
1 29.293 14.1456 9.88532
1 28.5425 13.3178 9.91534
1 0 12.5386 10.7118
1 0.793701 11.7449 10.7118
1 0.823967 12.5345 9.91379
1 0.0819079 11.7602 9.87098
1 1.5874 12.5386 10.7118
1 2.3811 11.7449 10.7118
1 2.39775 12.5323 9.92969
1 1.62598 11.7585 9.9141
1 3.1748 12.5386 10.7118
1 3.9685 11.7449 10.7118
1 4.00009 12.537 9.90807
1 3.19082 11.7435 9.89761
1 4.7622 12.5386 10.7118
1 5.5559 11.7449 10.7118
1 5.55012 12.5181 9.91103
1 4.77474 11.7212 9.8985
1 6.3496 12.5386 10.7118
1 7.1433 11.7449 10.7118
1 7.13618 12.5457 9.91368
1 6.34442 11.738 9.92659
1 7.93701 12.5386 10.7118
1 8.73071 11.7449 10.7118
1 8.71392 12.5548 9.93305
1 7.95601 11.7372 9.93234
1 9.52441 12.5386 10.7118
1 10.3181 11.7449 10.7118
1 10.3149 12.5427 9.91726
1 9.52574 11.7684 9.91947
1 11.1118 12.5386 10.7118
1 11.9055 11.7449 10.7118
1 11.9015 12.5306 9.91899
1 11.128 11.742 9.92605
1 12.6992 12.5386 10.7118
1 13.4929 11.7449 10.7118
1 13.4869 12.574 9.89608
1 12.7018 11.7501 9.90076
1 14.2866 12.5386 10.7118
1 15.0803 11.7449 10.7118
1 15.0639 12.5291 9.8949
1 14.3042 11.7281 9.89562
1 15.874 12.5386 10.7118
1 16.6677 11.7449 10.7118
1 16.6811 12.5192 9.91811
1 15.8817 11.7507 9.92052
1 17.4614 12.5386 10.7118
1 18.2551 11.7449 10.7118
1 18.2486 12.5184 9.89809
1 17.464 11.7194 9.92647
1 19.0488 12.5386 10.7118
1 19.8425 11.7449 10.7118
1 19.8446 12.5337 9.89847
1 19.0438 11.7589 9.91194
1 20.6362 12.5386 10.7118
1 21.4299 11.7449 10.7118
1 21.4292 12.534 9.9463
1 20.6321 11.7729 9.92578
1 22.2236 12.5386 10.7118
1 23.0173 11.7449 10.7118
1 23.0127 12.521 9.91622
1 22.2189 11.7483 9.89375
1 23.811 12.5386 10.7118
1 24.6047 11.7449 10.7118
1 24.6033 12.5496 9.9324
1 23.8146 11.7348 9.91651
1 25.3984 12.5386 10.7118
1 26.1921 11.7449 10.7118
1 26.187 12.5394 9.923
1 25.3738 11.7598 9.94184
1 26.9858 12.5386 10.7118
1 27.7795 11.7449 10.7118
1 27.7544 12.5376 9.92749
1 26.9826 11.7459 9.91991
1 28.5732 12.5386 10.7118
1 29.3669 11.7449 10.7118
1 29.3286 12.5287 9.87904
1 28.5635 11.7592 9.9239
1 0 10.9512 10.7118
1 0.793701 10.1575 10.7118
1 0.846386 10.9441 9.91065
1 0.0847598 10.1651 9.86892
1 1.5874 10.9512 10.7118
1 2.3811 10.1575 10.7118
1 2.41424 10.9544 9.91142
1 1.60741 10.1826 9.90443
1 3.1748 10.9512 10.7118
1 3.9685 10.1575 10.7118
1 3.99958 10.9257 9.91828
1 3.19783 10.1454 9.91908
1 4.7622 10.9512 10.7118
1 5.5559 10.1575 10.7118
1 5.54243 10.9527 9.91957
1 4.77706 10.1326 9.92301
1 6.3496 10.9512 10.7118
1 7.1433 10.1575 10.7118
1 7.1445 10.9471 9.91818
1 6.34504 10.1524 9.93333
1 7.93701 10.9512 10.7118
1 8.73071 10.1575 10.7118
1 8.74107 10.9643 9.90386
1 7.94414 10.1575 9.92878
1 9.52441 10.9512 10.7118
1 10.3181 10.1575 10.7118
1 10.3121 10.9537 9.91868
1 9.5223 10.1498 9.92278
1 11.1118 10.9512 10.7118
1 11.9055 10.1575 10.7118
1 11.9254 10.9772 9.9172
1 11.134 10.1675 9.91833
1 12.6992 10.9512 10.7118
1 13.4929 10.1575 10.7118
1 13.4762 10.9577 9.92234
1 12.7041 10.1527 9.89549
1 14.2866 10.9512 10.7118
1 15.0803 10.1575 10.7118
1 15.0966 10.9736 9.90564
1 14.3091 10.1652 9.93739
1 15.874 10.9512 10.7118
1 16.6677 10.1575 10.7118
1 16.6548 10.9506 9.88913
1 15.8788 10.1589 9.90199
1 17.4614 10.9512 10.7118
1 18.2551 10.1575 10.7118
1 18.2371 10.9487 9.88974
1 17.4487 10.168 9.91223
1 19.0488 10.9512 10.7118
1 19.8425 10.1575 10.7118
1 19.8456 10.9703 9.93836
1 19.0413 10.166 9.9247
1 20.6362 10.9512 10.7118
1 21.4299 10.1575 10.7118
1 21.3965 10.9788 9.9355
1 20.6261 10.1486 9.93774
1 22.2236 10.9512 10.7118
1 23.0173 10.1575 10.7118
1 23.018 10.942 9.93464
1 22.2012 10.182 9.91834
1 23.811 10.9512 10.7118
1 24.6047 10.1575 10.7118
1 24.6107 10.9609 9.93698
1 23.8297 10.1854 9.9221
1 25.3984 10.9512 10.7118
1 26.1921 10.1575 10.7118
1 26.1558 10.964 9.94801
1 25.3861 10.169 9.94213
1 26.9858 10.9512 10.7118
1 27.7795 10.1575 10.7118
1 27.7762 10.9872 9.93249
1 26.949 10.1778 9.93756
1 28.5732 10.9512 10.7118
1 29.3669 10.1575 10.7118
1 29.3226 10.9638 9.88784
1 28.5725 10.1786 9.90873
1 0 9.36379 10.7118
1 0.793701 8.57009 10.7118
1 0.822296 9.36168 9.92246
1 0.0854437 8.57672 9.88104
1 1.5874 9.36379 10.7118
1 2.3811 8.57009 10.7118
1 2.38873 9.36173 9.90754
1 1.59907 8.54822 9.92597
1 3.1748 9.36379 10.7118
1 3.9685 8.57009 10.7118
1 3.9841 9.38244 9.93489
1 3.18044 8.55473 9.9249
1 4.7622 9.36379 10.7118
1 5.5559 8.57009 10.7118
1 5.54473 9.35151 9.92416
1 4.74429 8.59529 9.91331
1 6.3496 9.36379 10.7118
1 7.1433 8.57009 10.7118
1 7.16414 9.34456 9.91988
1 6.35479 8.56117 9.92377
1 7.93701 9.36379 10.7118
1 8.73071 8.57009 10.7118
1 8.74451 9.36264 9.91609
1 7.96362 8.57658 9.92306
1 9.52441 9.36379 10.7118
1 10.3181 8.57009 10.7118
1 10.3121 9.3438 9.92308
1 9.51863 8.58394 9.90235
1 11.1118 9.36379 10.7118
1 11.9055 8.57009 10.7118
1 11.9075 9.33354 9.90593
1 11.1156 8.58874 9.91692
1 12.6992 9.36379 10.7118
1 13.4929 8.57009 10.7118
1 13.4824 9.3841 9.91155
1 12.7102 8.57502 9.92935
1 14.2866 9.36379 10.7118
1 15.0803 8.57009 10.7118
1 15.0893 9.3718 9.9158
1 14.2794 8.54838 9.88897
1 15.874 9.36379 10.7118
1 16.6677 8.57009 10.7118
1 16.6599 9.36211 9.907
1 15.8604 8.57271 9.89674
1 17.4614 9.36379 10.7118
1 18.2551 8.57009 10.7118
1 18.2499 9.3766 9.91463
1 17.4825 8.57009 9.91469
1 19.0488 9.36379 10.7118
1 19.8425 8.57009 10.7118
1 19.8481 9.36286 9.90625
1 19.0681 8.57745 9.92696
1 20.6362 9.36379 10.7118
1 21.4299 8.57009 10.7118
1 21.4192 9.37064 9.93019
1 20.6453 8.58704 9.92108
1 22.2236 9.36379 10.7118
1 23.0173 8.57009 10.7118
1 23.0198 9.37416 9.91813
1 22.2303 8.57263 9.92155
1 23.811 9.36379 10.7118
1 24.6047 8.57009 10.7118
1 24.5961 9.36498 9.92958
1 23.8042 8.55118 9.93235
1 25.3984 9.36379 10.7118
1 26.1921 8.57009 10.7118
1 26.1673 9.35362 9.90407
1 25.3862 8.55587 9.94386
1 26.9858 9.36379 10.7118
1 27.7795 8.57009 10.7118
1 27.785 9.3857 9.90211
1 26.9828 8.56668 9.92259
1 28.5732 9.36379 10.7118
1 29.3669 8.57009 10.7118
1 29.3121 9.36693 9.91918
1 28.5413 8.57684 9.90031
1 0 7.77639 10.7118
1 0.793701 6.98268 10.7118
1 0.82268 7.73863 9.91803
1 0.0485831 6.96363 9.88659
1 1.5874 7.77639 10.7118
1 2.3811 6.98268 10.7118
1 2.39741 7.74571 9.9114
1 1.59341 6.97629 9.90568
1 3.1748 7.77639 10.7118
1 3.9685 6.98268 10.7118
1 3.97277 7.78855 9.93102
1 3.17352 6.99139 9.91225
1 4.7622 7.77639 10.7118
1 5.5559 6.98268 10.7118
1 5.55546 7.78668 9.89541
1 4.77893 6.97525 9.92195
1 6.3496 7.77639 10.7118
1 7.1433 6.98268 10.7118
1 7.14635 7.78064 9.92768
1 6.36745 6.98012 9.92817
1 7.93701 7.77639 10.7118
1 8.73071 6.98268 10.7118
1 8.74788 7.7742 9.92997
1 7.92792 6.98563 9.89945
1 9.52441 7.77639 10.7118
1 10.3181 6.98268 10.7118
1 10.3365 7.80077 9.95012
1 9.53897 6.95742 9.91047
1 11.1118 7.77639 10.7118
1 11.9055 6.98268 10.7118
1 11.8755 7.7887 9.92718
1 11.1103 6.98058 9.93203
1 12.6992 7.77639 10.7118
1 13.4929 6.98268 10.7118
1 13.4998 7.78567 9.89602
1 12.6884 6.96239 9.90133
1 14.2866 7.77639 10.7118
1 15.0803 6.98268 10.7118
1 15.0848 7.78231 9.91375
1 14.3052 6.98851 9.91519
1 15.874 7.77639 10.7118
1 16.6677 6.98268 10.7118
1 16.6594 7.7915 9.91819
1 15.8829 6.99535 9.91876
1 17.4614 7.77639 10.7118
1 18.2551 6.98268 10.7118
1 18.2625 7.77016 9.91867
1 17.4504 6.96285 9.89696
1 19.0488 7.77639 10.7118
1 19.8425 6.98268 10.7118
1 19.8447 7.75461 9.91286
1 19.0544 6.98493 9.91004
1 20.6362 7.77639 10.7118
1 21.4299 6.98268 10.7118
1 21.4322 7.76995 9.94084
1 20.6374 6.98035 9.90471
1 22.2236 7.77639 10.7118
1 23.0173 6.98268 10.7118
1 23.0364 7.77383 9.9349
1 22.2249 6.95879 9.92919
1 23.811 7.77639 10.7118
1 24.6047 6.98268 10.7118
1 24.6151 7.75664 9.91559
1 23.8016 6.99053 9.91511
1 25.3984 7.77639 10.7118
1 26.1921 6.98268 10.7118
1 26.1798 7.7789 9.9252
1 25.4148 7.00583 9.91741
1 26.9858 7.77639 10.7118
1 27.7795 6.98268 10.7118
1 27.7661 7.77571 9.91139
1 26.9784 6.98114 9.93047
1 28.5732 7.77639 10.7118
1 29.3669 6.98268 10.7118
1 29.3121 7.78354 9.88408
1 28.5416 7.0051 9.92746
1 0 6.18898 10.7118
1 0.793701 5.39528 10.7118
1 0.814498 6.18786 9.90999
1 0.0609394 5.40151 9.88538
1 1.5874 6.18898 10.7118
1 2.3811 5.39528 10.7118
1 2.39292 6.18693 9.91501
1 1.59287 5.39531 9.91055
1 3.1748 6.18898 10.7118
1 3.9685 5.39528 10.7118
1 3.98772 6.18258 9.91522
1 3.17002 5.39799 9.90828
1 4.7622 6.18898 10.7118
1 5.5559 5.39528 10.7118
1 5.53955 6.19221 9.92762
1 4.80473 5.42323 9.92991
1 6.3496 6.18898 10.7118
1 7.1433 5.39528 10.7118
1 7.16976 6.19723 9.90664
1 6.35435 5.40103 9.90883
1 7.93701 6.18898 10.7118
1 8.73071 5.39528 10.7118
1 8.74273 6.18087 9.90964
1 7.94233 5.40745 9.90801
1 9.52441 6.18898 10.7118
1 10.3181 5.39528 10.7118