LAMMPS (5 Jun 2019)
OMP_NUM_THREADS environment is not set. Defaulting to 1 thread. (src/comm.cpp:88)
  using 1 OpenMP thread(s) per MPI task
#--- Brush Variables---#
variable      f      index  1 2 0.5
variable      M      equal  $(v_f * 30)                 # The number of polymer chains on each brush
variable      M      equal  30                 
variable      N      string 30                 # The number of beads per chain
variable      xhi    equal  $(sqrt(v_f) * 20)                 # The width of the polymer Brush
variable      xhi    equal  20                 
variable      yhi    equal  $(sqrt(v_f) * 20)                 # The length of the polymer Brush
variable      yhi    equal  20                 
variable      wthick equal  3                  # The thickness of the walls wthick=1,2,3,4 gives 2,3,4,6 layers respectively

#--- Simulation Variables ---#
variable       Temp      index 1        #0.8 1 1.68                 #[Grest96]
variable       Tstep     equal 0.005                       # Timestep in Tau (default = 0.005)
variable       Nequil    equal 300000                       # Number of timesteps to equilibrate
variable       Ncomp     equal 700000                     # Number of timesteps to compress - until no more occilation of walls
variable       Nshear    equal 800000      #2000000                      # Number of timesteps to shear - use approx 4ns for 10m/s
variable       Nthermo   equal 1000                        # Number of timesteps between thermo data prints
variable       Ndump_e   equal 10000
variable       Ndump_c   equal 10000                      # Number of timesteps per dump file (compression)
variable       Ndump_s   equal 10000                       # Number of timesteps per dump file (shear)
variable       Wall_v    index 0.5   #0.001 0.01 0.1 0.2 0.4 0.6 0.8 1 1.2 1.4 1.6 1.8 2   # 0.005 0.05 0.1 0.5 1.5 0.001 0.003 0.2 0.0002 2                      # Wall velocity (A/fs) - equal to 10 m/s
variable       Pcomp     index 3 #3 4 5 8 10 1.50 0.5 0.05

label          sim
include        MDPBB.in
# This is an input script that creates a mono disperse polymer brush bilayer
# A coarse grained bead-spring model is used for the polymers which are end
# grafted to the surfaces of 2 opposing FCC walls at random sites.

#--- Initialization ---#

dimension     3
boundary      p p f
units         lj
atom_style    bond


#--- Moved to main.in ---#
#variable      M      equal  50                # The number of polymer chains on each brush
#variable      N      string 80                # The number of beads per chain
#variable      xhi    equal  15                # The width of the polymer Brush
#variable      yhi    equal  20                # The length of the polymer Brush
#variable      wthick equal  3                 # The thickness of the walls wthick=1,2,3,4 gives 2,3,4,6 layers respectively

variable      zhi    equal  $(1.1 * 2 * v_N + (2 * v_wthick))  # The initial height of the simulation box the value is such that no overlaps occur
variable      zhi    equal  72  
variable      z0     equal  $((v_zhi)/4 - (v_N)/30)          # This is the location at which to place the CoM of the molecule
variable      z0     equal  17          

print "The number of grafted chains = $(v_M)"
The number of grafted chains = 30
print "The number of beads per chain = $(v_N)"
The number of beads per chain = 30

variable      check  equal count(all)         # The number of atoms in the system
variable      ntwall equal count(twall)       # The number of atoms in the top wall
variable      nbwall equal count(bwall)       # The number of atoms in the bottom wall
variable      s equal 234897  #45335              # Seed for the RNG

print "zhi = ${zhi}"
zhi = 72

#--- Create the simulation box ---#

region        sbox block 0 ${xhi} 0 ${yhi} 0 ${zhi}
region        sbox block 0 20 0 ${yhi} 0 ${zhi}
region        sbox block 0 20 0 20 0 ${zhi}
region        sbox block 0 20 0 20 0 72
create_box    4 sbox bond/types 3 extra/bond/per/atom 12 extra/special/per/atom 2
Created orthogonal box = (0 0 0) to (20 20 72)
  1 by 1 by 1 MPI processor grid

mass          1 2.0                   # Wall atoms that are not grafted
mass          2 1.0                   # Grafted bead
mass          3 1.0                   # The rest of the beads on the chain
mass          4 2.0                   # Wall atoms that the chains are grafted to

bond_style    hybrid fene harmonic    # Finitely extensible linearly elastic bond between neighbouring beads
#bond_coeff    1 fene 30.0 1.5 0.0 0.0      # Values obtained from literature [Grest, Galushcko]
bond_coeff    1 fene 30.0 30.0 0.0 0.0
bond_coeff    2 fene 30.0 30.0 0.0 0.0       # This is the grafting bond between the polymer and the wall atom
special_bonds fene                    #
  0 = max # of 1-2 neighbors
  5 = max # of special neighbors
  special bonds CPU = 0.000416 secs
pair_style	  lj/cut 1.122462         # LJ potential with rc=2^1/6
#pair_coeff	  * * 1.0 1.0             # LJ potential acts between all atoms
pair_coeff    1 1 0.0 0.0
pair_coeff    1 2 1.0 1.0
pair_coeff    1 3 1.0 1.0
pair_coeff    2 2 1.0 1.0
pair_coeff    2 3 1.0 1.0
pair_coeff    2 4 1.0 1.0
pair_coeff    3 3 1.0 1.0
pair_coeff    3 4 1.0 1.0
pair_coeff    4 4 0.0 0.0
neighbor      10 bin                  #
neigh_modify  one 4000

#--- Create and read the molecule file ---#
python        BSMolf input 1 $N format i file BSMolf.py
python        BSMolf input 1 30 format i file BSMolf.py
python        BSMolf invoke    # Call the python function with number of beads to write the mol file
molecule      bs     bsmol.txt     # Read the Mol file to define the polymer chain
Read molecule bs:
  30 atoms with max type 2
  29 bonds with max type 1
  0 angles with max type 0
  0 dihedrals with max type 0
  0 impropers with max type 0

#--- Define the FCC wall region ---#
region        wall  block 0 ${xhi} 0 ${yhi} 0 ${wthick}
region        wall  block 0 20 0 ${yhi} 0 ${wthick}
region        wall  block 0 20 0 20 0 ${wthick}
region        wall  block 0 20 0 20 0 3
lattice       fcc 1
Lattice spacing in x,y,z = 1.5874 1.5874 1.5874

#--- Create the Top Brush  (At the bottom then rotate 180 degrees to top) ---#

create_atoms  1 region wall
Created 1352 atoms
  create_atoms CPU = 0.0018204 secs
group         twall  region wall
1352 atoms in group twall
#group         tsurf  region wsurf

# A loop to insert the Chains into the sim box
variable      i loop $M                                   # Index to insert N total number of chains
variable      i loop 30                                   
label         loop                                        # Start of loop
variable      randni equal round(random(1,${ntwall},$s))  # Pick a random "top" wall atom
variable      randni equal round(random(1,1352,$s))  
variable      randni equal round(random(1,1352,234897))  
variable      randatomi equal ${randni}                   # This is to obtain an integer number for atom-id
variable      randatomi equal 850                   
variable      randzi equal z[${randatomi}]                # Determine the z coordinate of the chosen atom
variable      randzi equal z[850]                
# if the chosen atom is not a surface atom then restart the loop
if            "${randzi} < $(v_wthick - 0.7)" then "jump MDPBB.in loop"
jump MDPBB.in loop
variable      randni equal round(random(1,${ntwall},$s))  # Pick a random "top" wall atom
variable      randni equal round(random(1,1352,$s))  
variable      randni equal round(random(1,1352,234897))  
variable      randatomi equal ${randni}                   # This is to obtain an integer number for atom-id
variable      randatomi equal 213                   
variable      randzi equal z[${randatomi}]                # Determine the z coordinate of the chosen atom
variable      randzi equal z[213]                
# if the chosen atom is not a surface atom then restart the loop
if            "${randzi} < $(v_wthick - 0.7)" then "jump MDPBB.in loop"
jump MDPBB.in loop
variable      randni equal round(random(1,${ntwall},$s))  # Pick a random "top" wall atom
variable      randni equal round(random(1,1352,$s))  
variable      randni equal round(random(1,1352,234897))  
variable      randatomi equal ${randni}                   # This is to obtain an integer number for atom-id
variable      randatomi equal 1022                   
variable      randzi equal z[${randatomi}]                # Determine the z coordinate of the chosen atom
variable      randzi equal z[1022]                
# if the chosen atom is not a surface atom then restart the loop
if            "${randzi} < $(v_wthick - 0.7)" then "jump MDPBB.in loop"
jump MDPBB.in loop
variable      randni equal round(random(1,${ntwall},$s))  # Pick a random "top" wall atom
variable      randni equal round(random(1,1352,$s))  
variable      randni equal round(random(1,1352,234897))  
variable      randatomi equal ${randni}                   # This is to obtain an integer number for atom-id
variable      randatomi equal 1031                   
variable      randzi equal z[${randatomi}]                # Determine the z coordinate of the chosen atom
variable      randzi equal z[1031]                
# if the chosen atom is not a surface atom then restart the loop
if            "${randzi} < $(v_wthick - 0.7)" then "jump MDPBB.in loop"
set           atom ${randatomi} type 4                    # Set this grafted wall atom as a new type
set           atom 1031 type 4                    
  1 settings made for type
group         twg id ${randatomi}                         # Add this atom to a top-wall-grafted group
group         twg id 1031                         
1 atoms in group twg
variable      twgcount equal count(twg)
print         "twg contains ${twgcount}"
twg contains 1
print         "i = $(v_i)"                                # The index i should always be equal to the number of atom in twg
i = 1
variable      x0 equal x[${randatomi}]                    # Determine its x-coord
variable      x0 equal x[1031]                    
variable      y0 equal y[${randatomi}]                    # Determine its y-coord
variable      y0 equal y[1031]                    
variable      check0 equal ${check}                       # Count the number of atoms in the simulation
variable      check0 equal 1352                       
variable      b equal ${check}+1                          # The grafted bead id will be one higher after being inserted
variable      b equal 1352+1                          
if            "${twgcount} != $(v_i)" then "jump MDPBB.in loop"
# Otherwise insert the chain directly above the chosen wall atom pointing perpendicular to the wall
create_atoms  1 single ${x0} ${y0} ${z0} mol bs 24987 units box remap yes rotate 0 0 0 1
create_atoms  1 single 16.6677110456661 ${y0} ${z0} mol bs 24987 units box remap yes rotate 0 0 0 1
create_atoms  1 single 16.6677110456661 9.5244063118092 ${z0} mol bs 24987 units box remap yes rotate 0 0 0 1
create_atoms  1 single 16.6677110456661 9.5244063118092 17 mol bs 24987 units box remap yes rotate 0 0 0 1
Created 30 atoms
  create_atoms CPU = 0.000303 secs
variable      check1 equal ${check}               # Count the new total number of atoms
variable      check1 equal 1382               
# Check that the molecule has indeed been inserted (This check is no longer an issue).
if            "${check1} != ${check0}" then "create_bonds  single/bond 2 ${randatomi} $b" "next i"
create_bonds  single/bond 2 ${randatomi} $b
create_bonds  single/bond 2 1031 $b
create_bonds  single/bond 2 1031 1353
  2 = max # of 1-2 neighbors
  5 = max # of special neighbors
  special bonds CPU = 0.0047 secs
next i
jump MDPBB.in loop    # End of the loop
variable      randni equal round(random(1,${ntwall},$s))  # Pick a random "top" wall atom
variable      randni equal round(random(1,1352,$s))  
variable      randni equal round(random(1,1352,234897))  
variable      randatomi equal ${randni}                   # This is to obtain an integer number for atom-id
variable      randatomi equal 982                   
variable      randzi equal z[${randatomi}]                # Determine the z coordinate of the chosen atom
variable      randzi equal z[982]                
# if the chosen atom is not a surface atom then restart the loop
if            "${randzi} < $(v_wthick - 0.7)" then "jump MDPBB.in loop"
jump MDPBB.in loop
variable      randni equal round(random(1,${ntwall},$s))  # Pick a random "top" wall atom
variable      randni equal round(random(1,1352,$s))  
variable      randni equal round(random(1,1352,234897))  
variable      randatomi equal ${randni}                   # This is to obtain an integer number for atom-id
variable      randatomi equal 1332                   
variable      randzi equal z[${randatomi}]                # Determine the z coordinate of the chosen atom
variable      randzi equal z[1332]                
# if the chosen atom is not a surface atom then restart the loop
if            "${randzi} < $(v_wthick - 0.7)" then "jump MDPBB.in loop"
set           atom ${randatomi} type 4                    # Set this grafted wall atom as a new type
set           atom 1332 type 4                    
  1 settings made for type
group         twg id ${randatomi}                         # Add this atom to a top-wall-grafted group
group         twg id 1332                         
2 atoms in group twg
variable      twgcount equal count(twg)
print         "twg contains ${twgcount}"
twg contains 2
print         "i = $(v_i)"                                # The index i should always be equal to the number of atom in twg
i = 2
variable      x0 equal x[${randatomi}]                    # Determine its x-coord
variable      x0 equal x[1332]                    
variable      y0 equal y[${randatomi}]                    # Determine its y-coord
variable      y0 equal y[1332]                    
variable      check0 equal ${check}                       # Count the number of atoms in the simulation
variable      check0 equal 1382                       
variable      b equal ${check}+1                          # The grafted bead id will be one higher after being inserted
variable      b equal 1382+1                          
if            "${twgcount} != $(v_i)" then "jump MDPBB.in loop"
# Otherwise insert the chain directly above the chosen wall atom pointing perpendicular to the wall
create_atoms  1 single ${x0} ${y0} ${z0} mol bs 24987 units box remap yes rotate 0 0 0 1
create_atoms  1 single 11.1118073637774 ${y0} ${z0} mol bs 24987 units box remap yes rotate 0 0 0 1
create_atoms  1 single 11.1118073637774 19.8425131496025 ${z0} mol bs 24987 units box remap yes rotate 0 0 0 1
create_atoms  1 single 11.1118073637774 19.8425131496025 17 mol bs 24987 units box remap yes rotate 0 0 0 1
Created 30 atoms
  create_atoms CPU = 9.29e-05 secs
variable      check1 equal ${check}               # Count the new total number of atoms
variable      check1 equal 1412               
# Check that the molecule has indeed been inserted (This check is no longer an issue).
if            "${check1} != ${check0}" then "create_bonds  single/bond 2 ${randatomi} $b" "next i"
create_bonds  single/bond 2 ${randatomi} $b
create_bonds  single/bond 2 1332 $b
create_bonds  single/bond 2 1332 1383
  2 = max # of 1-2 neighbors
  5 = max # of special neighbors
  special bonds CPU = 0.0021245 secs
next i
jump MDPBB.in loop    # End of the loop
variable      randni equal round(random(1,${ntwall},$s))  # Pick a random "top" wall atom
variable      randni equal round(random(1,1352,$s))  
variable      randni equal round(random(1,1352,234897))  
variable      randatomi equal ${randni}                   # This is to obtain an integer number for atom-id
variable      randatomi equal 643                   
variable      randzi equal z[${randatomi}]                # Determine the z coordinate of the chosen atom
variable      randzi equal z[643]                
# if the chosen atom is not a surface atom then restart the loop
if            "${randzi} < $(v_wthick - 0.7)" then "jump MDPBB.in loop"
jump MDPBB.in loop
variable      randni equal round(random(1,${ntwall},$s))  # Pick a random "top" wall atom
variable      randni equal round(random(1,1352,$s))  
variable      randni equal round(random(1,1352,234897))  
variable      randatomi equal ${randni}                   # This is to obtain an integer number for atom-id
variable      randatomi equal 454                   
variable      randzi equal z[${randatomi}]                # Determine the z coordinate of the chosen atom
variable      randzi equal z[454]                
# if the chosen atom is not a surface atom then restart the loop
if            "${randzi} < $(v_wthick - 0.7)" then "jump MDPBB.in loop"
jump MDPBB.in loop
variable      randni equal round(random(1,${ntwall},$s))  # Pick a random "top" wall atom
variable      randni equal round(random(1,1352,$s))  
variable      randni equal round(random(1,1352,234897))  
variable      randatomi equal ${randni}                   # This is to obtain an integer number for atom-id
variable      randatomi equal 585                   
variable      randzi equal z[${randatomi}]                # Determine the z coordinate of the chosen atom
variable      randzi equal z[585]                
# if the chosen atom is not a surface atom then restart the loop
if            "${randzi} < $(v_wthick - 0.7)" then "jump MDPBB.in loop"
jump MDPBB.in loop
variable      randni equal round(random(1,${ntwall},$s))  # Pick a random "top" wall atom
variable      randni equal round(random(1,1352,$s))  
variable      randni equal round(random(1,1352,234897))  
variable      randatomi equal ${randni}                   # This is to obtain an integer number for atom-id
variable      randatomi equal 979                   
variable      randzi equal z[${randatomi}]                # Determine the z coordinate of the chosen atom
variable      randzi equal z[979]                
# if the chosen atom is not a surface atom then restart the loop
if            "${randzi} < $(v_wthick - 0.7)" then "jump MDPBB.in loop"
set           atom ${randatomi} type 4                    # Set this grafted wall atom as a new type
set           atom 979 type 4                    
  1 settings made for type
group         twg id ${randatomi}                         # Add this atom to a top-wall-grafted group
group         twg id 979                         
3 atoms in group twg
variable      twgcount equal count(twg)
print         "twg contains ${twgcount}"
twg contains 3
print         "i = $(v_i)"                                # The index i should always be equal to the number of atom in twg
i = 3
variable      x0 equal x[${randatomi}]                    # Determine its x-coord
variable      x0 equal x[979]                    
variable      y0 equal y[${randatomi}]                    # Determine its y-coord
variable      y0 equal y[979]                    
variable      check0 equal ${check}                       # Count the number of atoms in the simulation
variable      check0 equal 1412                       
variable      b equal ${check}+1                          # The grafted bead id will be one higher after being inserted
variable      b equal 1412+1                          
if            "${twgcount} != $(v_i)" then "jump MDPBB.in loop"
# Otherwise insert the chain directly above the chosen wall atom pointing perpendicular to the wall
create_atoms  1 single ${x0} ${y0} ${z0} mol bs 24987 units box remap yes rotate 0 0 0 1
create_atoms  1 single 16.6677110456661 ${y0} ${z0} mol bs 24987 units box remap yes rotate 0 0 0 1
create_atoms  1 single 16.6677110456661 7.937005259841 ${z0} mol bs 24987 units box remap yes rotate 0 0 0 1
create_atoms  1 single 16.6677110456661 7.937005259841 17 mol bs 24987 units box remap yes rotate 0 0 0 1
Created 30 atoms
  create_atoms CPU = 4.26e-05 secs
variable      check1 equal ${check}               # Count the new total number of atoms
variable      check1 equal 1442               
# Check that the molecule has indeed been inserted (This check is no longer an issue).
if            "${check1} != ${check0}" then "create_bonds  single/bond 2 ${randatomi} $b" "next i"
create_bonds  single/bond 2 ${randatomi} $b
create_bonds  single/bond 2 979 $b
create_bonds  single/bond 2 979 1413
  2 = max # of 1-2 neighbors
  5 = max # of special neighbors
  special bonds CPU = 0.0021278 secs
next i
jump MDPBB.in loop    # End of the loop
variable      randni equal round(random(1,${ntwall},$s))  # Pick a random "top" wall atom
variable      randni equal round(random(1,1352,$s))  
variable      randni equal round(random(1,1352,234897))  
variable      randatomi equal ${randni}                   # This is to obtain an integer number for atom-id
variable      randatomi equal 1211                   
variable      randzi equal z[${randatomi}]                # Determine the z coordinate of the chosen atom
variable      randzi equal z[1211]                
# if the chosen atom is not a surface atom then restart the loop
if            "${randzi} < $(v_wthick - 0.7)" then "jump MDPBB.in loop"
set           atom ${randatomi} type 4                    # Set this grafted wall atom as a new type
set           atom 1211 type 4                    
  1 settings made for type
group         twg id ${randatomi}                         # Add this atom to a top-wall-grafted group
group         twg id 1211                         
4 atoms in group twg
variable      twgcount equal count(twg)
print         "twg contains ${twgcount}"
twg contains 4
print         "i = $(v_i)"                                # The index i should always be equal to the number of atom in twg
i = 4
variable      x0 equal x[${randatomi}]                    # Determine its x-coord
variable      x0 equal x[1211]                    
variable      y0 equal y[${randatomi}]                    # Determine its y-coord
variable      y0 equal y[1211]                    
variable      check0 equal ${check}                       # Count the number of atoms in the simulation
variable      check0 equal 1442                       
variable      b equal ${check}+1                          # The grafted bead id will be one higher after being inserted
variable      b equal 1442+1                          
if            "${twgcount} != $(v_i)" then "jump MDPBB.in loop"
# Otherwise insert the chain directly above the chosen wall atom pointing perpendicular to the wall
create_atoms  1 single ${x0} ${y0} ${z0} mol bs 24987 units box remap yes rotate 0 0 0 1
create_atoms  1 single 5.5559036818887 ${y0} ${z0} mol bs 24987 units box remap yes rotate 0 0 0 1
create_atoms  1 single 5.5559036818887 15.874010519682 ${z0} mol bs 24987 units box remap yes rotate 0 0 0 1
create_atoms  1 single 5.5559036818887 15.874010519682 17 mol bs 24987 units box remap yes rotate 0 0 0 1
Created 30 atoms
  create_atoms CPU = 7.24e-05 secs
variable      check1 equal ${check}               # Count the new total number of atoms
variable      check1 equal 1472               
# Check that the molecule has indeed been inserted (This check is no longer an issue).
if            "${check1} != ${check0}" then "create_bonds  single/bond 2 ${randatomi} $b" "next i"
create_bonds  single/bond 2 ${randatomi} $b
create_bonds  single/bond 2 1211 $b
create_bonds  single/bond 2 1211 1443
  2 = max # of 1-2 neighbors
  5 = max # of special neighbors
  special bonds CPU = 0.0019884 secs
next i
jump MDPBB.in loop    # End of the loop
variable      randni equal round(random(1,${ntwall},$s))  # Pick a random "top" wall atom
variable      randni equal round(random(1,1352,$s))  
variable      randni equal round(random(1,1352,234897))  
variable      randatomi equal ${randni}                   # This is to obtain an integer number for atom-id
variable      randatomi equal 11                   
variable      randzi equal z[${randatomi}]                # Determine the z coordinate of the chosen atom
variable      randzi equal z[11]                
# if the chosen atom is not a surface atom then restart the loop
if            "${randzi} < $(v_wthick - 0.7)" then "jump MDPBB.in loop"
jump MDPBB.in loop
variable      randni equal round(random(1,${ntwall},$s))  # Pick a random "top" wall atom
variable      randni equal round(random(1,1352,$s))  
variable      randni equal round(random(1,1352,234897))  
variable      randatomi equal ${randni}                   # This is to obtain an integer number for atom-id
variable      randatomi equal 258                   
variable      randzi equal z[${randatomi}]                # Determine the z coordinate of the chosen atom
variable      randzi equal z[258]                
# if the chosen atom is not a surface atom then restart the loop
if            "${randzi} < $(v_wthick - 0.7)" then "jump MDPBB.in loop"
jump MDPBB.in loop
variable      randni equal round(random(1,${ntwall},$s))  # Pick a random "top" wall atom
variable      randni equal round(random(1,1352,$s))  
variable      randni equal round(random(1,1352,234897))  
variable      randatomi equal ${randni}                   # This is to obtain an integer number for atom-id
variable      randatomi equal 442                   
variable      randzi equal z[${randatomi}]                # Determine the z coordinate of the chosen atom
variable      randzi equal z[442]                
# if the chosen atom is not a surface atom then restart the loop
if            "${randzi} < $(v_wthick - 0.7)" then "jump MDPBB.in loop"
jump MDPBB.in loop
variable      randni equal round(random(1,${ntwall},$s))  # Pick a random "top" wall atom
variable      randni equal round(random(1,1352,$s))  
variable      randni equal round(random(1,1352,234897))  
variable      randatomi equal ${randni}                   # This is to obtain an integer number for atom-id
variable      randatomi equal 1095                   
variable      randzi equal z[${randatomi}]                # Determine the z coordinate of the chosen atom
variable      randzi equal z[1095]                
# if the chosen atom is not a surface atom then restart the loop
if            "${randzi} < $(v_wthick - 0.7)" then "jump MDPBB.in loop"
set           atom ${randatomi} type 4                    # Set this grafted wall atom as a new type
set           atom 1095 type 4                    
  1 settings made for type
group         twg id ${randatomi}                         # Add this atom to a top-wall-grafted group
group         twg id 1095                         
5 atoms in group twg
variable      twgcount equal count(twg)
print         "twg contains ${twgcount}"
twg contains 5
print         "i = $(v_i)"                                # The index i should always be equal to the number of atom in twg
i = 5
variable      x0 equal x[${randatomi}]                    # Determine its x-coord
variable      x0 equal x[1095]                    
variable      y0 equal y[${randatomi}]                    # Determine its y-coord
variable      y0 equal y[1095]                    
variable      check0 equal ${check}                       # Count the number of atoms in the simulation
variable      check0 equal 1472                       
variable      b equal ${check}+1                          # The grafted bead id will be one higher after being inserted
variable      b equal 1472+1                          
if            "${twgcount} != $(v_i)" then "jump MDPBB.in loop"
# Otherwise insert the chain directly above the chosen wall atom pointing perpendicular to the wall
create_atoms  1 single ${x0} ${y0} ${z0} mol bs 24987 units box remap yes rotate 0 0 0 1
create_atoms  1 single 0.7937005259841 ${y0} ${z0} mol bs 24987 units box remap yes rotate 0 0 0 1
create_atoms  1 single 0.7937005259841 12.6992084157456 ${z0} mol bs 24987 units box remap yes rotate 0 0 0 1
create_atoms  1 single 0.7937005259841 12.6992084157456 17 mol bs 24987 units box remap yes rotate 0 0 0 1
Created 30 atoms
  create_atoms CPU = 4.41e-05 secs
variable      check1 equal ${check}               # Count the new total number of atoms
variable      check1 equal 1502               
# Check that the molecule has indeed been inserted (This check is no longer an issue).
if            "${check1} != ${check0}" then "create_bonds  single/bond 2 ${randatomi} $b" "next i"
create_bonds  single/bond 2 ${randatomi} $b
create_bonds  single/bond 2 1095 $b
create_bonds  single/bond 2 1095 1473
  2 = max # of 1-2 neighbors
  5 = max # of special neighbors
  special bonds CPU = 0.0042244 secs
next i
jump MDPBB.in loop    # End of the loop
variable      randni equal round(random(1,${ntwall},$s))  # Pick a random "top" wall atom
variable      randni equal round(random(1,1352,$s))  
variable      randni equal round(random(1,1352,234897))  
variable      randatomi equal ${randni}                   # This is to obtain an integer number for atom-id
variable      randatomi equal 960                   
variable      randzi equal z[${randatomi}]                # Determine the z coordinate of the chosen atom
variable      randzi equal z[960]                
# if the chosen atom is not a surface atom then restart the loop
if            "${randzi} < $(v_wthick - 0.7)" then "jump MDPBB.in loop"
set           atom ${randatomi} type 4                    # Set this grafted wall atom as a new type
set           atom 960 type 4                    
  1 settings made for type
group         twg id ${randatomi}                         # Add this atom to a top-wall-grafted group
group         twg id 960                         
6 atoms in group twg
variable      twgcount equal count(twg)
print         "twg contains ${twgcount}"
twg contains 6
print         "i = $(v_i)"                                # The index i should always be equal to the number of atom in twg
i = 6
variable      x0 equal x[${randatomi}]                    # Determine its x-coord
variable      x0 equal x[960]                    
variable      y0 equal y[${randatomi}]                    # Determine its y-coord
variable      y0 equal y[960]                    
variable      check0 equal ${check}                       # Count the number of atoms in the simulation
variable      check0 equal 1502                       
variable      b equal ${check}+1                          # The grafted bead id will be one higher after being inserted
variable      b equal 1502+1                          
if            "${twgcount} != $(v_i)" then "jump MDPBB.in loop"
# Otherwise insert the chain directly above the chosen wall atom pointing perpendicular to the wall
create_atoms  1 single ${x0} ${y0} ${z0} mol bs 24987 units box remap yes rotate 0 0 0 1
create_atoms  1 single 7.937005259841 ${y0} ${z0} mol bs 24987 units box remap yes rotate 0 0 0 1
create_atoms  1 single 7.937005259841 8.7307057858251 ${z0} mol bs 24987 units box remap yes rotate 0 0 0 1
create_atoms  1 single 7.937005259841 8.7307057858251 17 mol bs 24987 units box remap yes rotate 0 0 0 1
Created 30 atoms
  create_atoms CPU = 5.47e-05 secs
variable      check1 equal ${check}               # Count the new total number of atoms
variable      check1 equal 1532               
# Check that the molecule has indeed been inserted (This check is no longer an issue).
if            "${check1} != ${check0}" then "create_bonds  single/bond 2 ${randatomi} $b" "next i"
create_bonds  single/bond 2 ${randatomi} $b
create_bonds  single/bond 2 960 $b
create_bonds  single/bond 2 960 1503
  2 = max # of 1-2 neighbors
  5 = max # of special neighbors
  special bonds CPU = 0.0023238 secs
next i
jump MDPBB.in loop    # End of the loop
variable      randni equal round(random(1,${ntwall},$s))  # Pick a random "top" wall atom
variable      randni equal round(random(1,1352,$s))  
variable      randni equal round(random(1,1352,234897))  
variable      randatomi equal ${randni}                   # This is to obtain an integer number for atom-id
variable      randatomi equal 931                   
variable      randzi equal z[${randatomi}]                # Determine the z coordinate of the chosen atom
variable      randzi equal z[931]                
# if the chosen atom is not a surface atom then restart the loop
if            "${randzi} < $(v_wthick - 0.7)" then "jump MDPBB.in loop"
set           atom ${randatomi} type 4                    # Set this grafted wall atom as a new type
set           atom 931 type 4                    
  1 settings made for type
group         twg id ${randatomi}                         # Add this atom to a top-wall-grafted group
group         twg id 931                         
7 atoms in group twg
variable      twgcount equal count(twg)
print         "twg contains ${twgcount}"
twg contains 7
print         "i = $(v_i)"                                # The index i should always be equal to the number of atom in twg
i = 7
variable      x0 equal x[${randatomi}]                    # Determine its x-coord
variable      x0 equal x[931]                    
variable      y0 equal y[${randatomi}]                    # Determine its y-coord
variable      y0 equal y[931]                    
variable      check0 equal ${check}                       # Count the number of atoms in the simulation
variable      check0 equal 1532                       
variable      b equal ${check}+1                          # The grafted bead id will be one higher after being inserted
variable      b equal 1532+1                          
if            "${twgcount} != $(v_i)" then "jump MDPBB.in loop"
# Otherwise insert the chain directly above the chosen wall atom pointing perpendicular to the wall
create_atoms  1 single ${x0} ${y0} ${z0} mol bs 24987 units box remap yes rotate 0 0 0 1
create_atoms  1 single 18.2551120976343 ${y0} ${z0} mol bs 24987 units box remap yes rotate 0 0 0 1
create_atoms  1 single 18.2551120976343 6.3496042078728 ${z0} mol bs 24987 units box remap yes rotate 0 0 0 1
create_atoms  1 single 18.2551120976343 6.3496042078728 17 mol bs 24987 units box remap yes rotate 0 0 0 1
Created 30 atoms
  create_atoms CPU = 7.19e-05 secs
variable      check1 equal ${check}               # Count the new total number of atoms
variable      check1 equal 1562               
# Check that the molecule has indeed been inserted (This check is no longer an issue).
if            "${check1} != ${check0}" then "create_bonds  single/bond 2 ${randatomi} $b" "next i"
create_bonds  single/bond 2 ${randatomi} $b
create_bonds  single/bond 2 931 $b
create_bonds  single/bond 2 931 1533
  2 = max # of 1-2 neighbors
  5 = max # of special neighbors
  special bonds CPU = 0.0021104 secs
next i
jump MDPBB.in loop    # End of the loop
variable      randni equal round(random(1,${ntwall},$s))  # Pick a random "top" wall atom
variable      randni equal round(random(1,1352,$s))  
variable      randni equal round(random(1,1352,234897))  
variable      randatomi equal ${randni}                   # This is to obtain an integer number for atom-id
variable      randatomi equal 755                   
variable      randzi equal z[${randatomi}]                # Determine the z coordinate of the chosen atom
variable      randzi equal z[755]                
# if the chosen atom is not a surface atom then restart the loop
if            "${randzi} < $(v_wthick - 0.7)" then "jump MDPBB.in loop"
set           atom ${randatomi} type 4                    # Set this grafted wall atom as a new type
set           atom 755 type 4                    
  1 settings made for type
group         twg id ${randatomi}                         # Add this atom to a top-wall-grafted group
group         twg id 755                         
8 atoms in group twg
variable      twgcount equal count(twg)
print         "twg contains ${twgcount}"
twg contains 8
print         "i = $(v_i)"                                # The index i should always be equal to the number of atom in twg
i = 8
variable      x0 equal x[${randatomi}]                    # Determine its x-coord
variable      x0 equal x[755]                    
variable      y0 equal y[${randatomi}]                    # Determine its y-coord
variable      y0 equal y[755]                    
variable      check0 equal ${check}                       # Count the number of atoms in the simulation
variable      check0 equal 1562                       
variable      b equal ${check}+1                          # The grafted bead id will be one higher after being inserted
variable      b equal 1562+1                          
if            "${twgcount} != $(v_i)" then "jump MDPBB.in loop"
# Otherwise insert the chain directly above the chosen wall atom pointing perpendicular to the wall
create_atoms  1 single ${x0} ${y0} ${z0} mol bs 24987 units box remap yes rotate 0 0 0 1
create_atoms  1 single 10.3181068377933 ${y0} ${z0} mol bs 24987 units box remap yes rotate 0 0 0 1
create_atoms  1 single 10.3181068377933 1.5874010519682 ${z0} mol bs 24987 units box remap yes rotate 0 0 0 1
create_atoms  1 single 10.3181068377933 1.5874010519682 17 mol bs 24987 units box remap yes rotate 0 0 0 1
Created 30 atoms
  create_atoms CPU = 4.11e-05 secs
variable      check1 equal ${check}               # Count the new total number of atoms
variable      check1 equal 1592               
# Check that the molecule has indeed been inserted (This check is no longer an issue).
if            "${check1} != ${check0}" then "create_bonds  single/bond 2 ${randatomi} $b" "next i"
create_bonds  single/bond 2 ${randatomi} $b
create_bonds  single/bond 2 755 $b
create_bonds  single/bond 2 755 1563
  2 = max # of 1-2 neighbors
  5 = max # of special neighbors
  special bonds CPU = 0.0048886 secs
next i
jump MDPBB.in loop    # End of the loop
variable      randni equal round(random(1,${ntwall},$s))  # Pick a random "top" wall atom
variable      randni equal round(random(1,1352,$s))  
variable      randni equal round(random(1,1352,234897))  
variable      randatomi equal ${randni}                   # This is to obtain an integer number for atom-id
variable      randatomi equal 1053                   
variable      randzi equal z[${randatomi}]                # Determine the z coordinate of the chosen atom
variable      randzi equal z[1053]                
# if the chosen atom is not a surface atom then restart the loop
if            "${randzi} < $(v_wthick - 0.7)" then "jump MDPBB.in loop"
jump MDPBB.in loop
variable      randni equal round(random(1,${ntwall},$s))  # Pick a random "top" wall atom
variable      randni equal round(random(1,1352,$s))  
variable      randni equal round(random(1,1352,234897))  
variable      randatomi equal ${randni}                   # This is to obtain an integer number for atom-id
variable      randatomi equal 832                   
variable      randzi equal z[${randatomi}]                # Determine the z coordinate of the chosen atom
variable      randzi equal z[832]                
# if the chosen atom is not a surface atom then restart the loop
if            "${randzi} < $(v_wthick - 0.7)" then "jump MDPBB.in loop"
set           atom ${randatomi} type 4                    # Set this grafted wall atom as a new type
set           atom 832 type 4                    
  1 settings made for type
group         twg id ${randatomi}                         # Add this atom to a top-wall-grafted group
group         twg id 832                         
9 atoms in group twg
variable      twgcount equal count(twg)
print         "twg contains ${twgcount}"
twg contains 9
print         "i = $(v_i)"                                # The index i should always be equal to the number of atom in twg
i = 9
variable      x0 equal x[${randatomi}]                    # Determine its x-coord
variable      x0 equal x[832]                    
variable      y0 equal y[${randatomi}]                    # Determine its y-coord
variable      y0 equal y[832]                    
variable      check0 equal ${check}                       # Count the number of atoms in the simulation
variable      check0 equal 1592                       
variable      b equal ${check}+1                          # The grafted bead id will be one higher after being inserted
variable      b equal 1592+1                          
if            "${twgcount} != $(v_i)" then "jump MDPBB.in loop"
# Otherwise insert the chain directly above the chosen wall atom pointing perpendicular to the wall
create_atoms  1 single ${x0} ${y0} ${z0} mol bs 24987 units box remap yes rotate 0 0 0 1
create_atoms  1 single 19.0488126236184 ${y0} ${z0} mol bs 24987 units box remap yes rotate 0 0 0 1
create_atoms  1 single 19.0488126236184 3.9685026299205 ${z0} mol bs 24987 units box remap yes rotate 0 0 0 1
create_atoms  1 single 19.0488126236184 3.9685026299205 17 mol bs 24987 units box remap yes rotate 0 0 0 1
Created 30 atoms
  create_atoms CPU = 4.53e-05 secs
variable      check1 equal ${check}               # Count the new total number of atoms
variable      check1 equal 1622               
# Check that the molecule has indeed been inserted (This check is no longer an issue).
if            "${check1} != ${check0}" then "create_bonds  single/bond 2 ${randatomi} $b" "next i"
create_bonds  single/bond 2 ${randatomi} $b
create_bonds  single/bond 2 832 $b
create_bonds  single/bond 2 832 1593
  2 = max # of 1-2 neighbors
  5 = max # of special neighbors
  special bonds CPU = 0.0042468 secs
next i
jump MDPBB.in loop    # End of the loop
variable      randni equal round(random(1,${ntwall},$s))  # Pick a random "top" wall atom
variable      randni equal round(random(1,1352,$s))  
variable      randni equal round(random(1,1352,234897))  
variable      randatomi equal ${randni}                   # This is to obtain an integer number for atom-id
variable      randatomi equal 838                   
variable      randzi equal z[${randatomi}]                # Determine the z coordinate of the chosen atom
variable      randzi equal z[838]                
# if the chosen atom is not a surface atom then restart the loop
if            "${randzi} < $(v_wthick - 0.7)" then "jump MDPBB.in loop"
jump MDPBB.in loop
variable      randni equal round(random(1,${ntwall},$s))  # Pick a random "top" wall atom
variable      randni equal round(random(1,1352,$s))  
variable      randni equal round(random(1,1352,234897))  
variable      randatomi equal ${randni}                   # This is to obtain an integer number for atom-id
variable      randatomi equal 163                   
variable      randzi equal z[${randatomi}]                # Determine the z coordinate of the chosen atom
variable      randzi equal z[163]                
# if the chosen atom is not a surface atom then restart the loop
if            "${randzi} < $(v_wthick - 0.7)" then "jump MDPBB.in loop"
jump MDPBB.in loop
variable      randni equal round(random(1,${ntwall},$s))  # Pick a random "top" wall atom
variable      randni equal round(random(1,1352,$s))  
variable      randni equal round(random(1,1352,234897))  
variable      randatomi equal ${randni}                   # This is to obtain an integer number for atom-id
variable      randatomi equal 1178                   
variable      randzi equal z[${randatomi}]                # Determine the z coordinate of the chosen atom
variable      randzi equal z[1178]                
# if the chosen atom is not a surface atom then restart the loop
if            "${randzi} < $(v_wthick - 0.7)" then "jump MDPBB.in loop"
jump MDPBB.in loop
variable      randni equal round(random(1,${ntwall},$s))  # Pick a random "top" wall atom
variable      randni equal round(random(1,1352,$s))  
variable      randni equal round(random(1,1352,234897))  
variable      randatomi equal ${randni}                   # This is to obtain an integer number for atom-id
variable      randatomi equal 814                   
variable      randzi equal z[${randatomi}]                # Determine the z coordinate of the chosen atom
variable      randzi equal z[814]                
# if the chosen atom is not a surface atom then restart the loop
if            "${randzi} < $(v_wthick - 0.7)" then "jump MDPBB.in loop"
jump MDPBB.in loop
variable      randni equal round(random(1,${ntwall},$s))  # Pick a random "top" wall atom
variable      randni equal round(random(1,1352,$s))  
variable      randni equal round(random(1,1352,234897))  
variable      randatomi equal ${randni}                   # This is to obtain an integer number for atom-id
variable      randatomi equal 1242                   
variable      randzi equal z[${randatomi}]                # Determine the z coordinate of the chosen atom
variable      randzi equal z[1242]                
# if the chosen atom is not a surface atom then restart the loop
if            "${randzi} < $(v_wthick - 0.7)" then "jump MDPBB.in loop"
jump MDPBB.in loop
variable      randni equal round(random(1,${ntwall},$s))  # Pick a random "top" wall atom
variable      randni equal round(random(1,1352,$s))  
variable      randni equal round(random(1,1352,234897))  
variable      randatomi equal ${randni}                   # This is to obtain an integer number for atom-id
variable      randatomi equal 942                   
variable      randzi equal z[${randatomi}]                # Determine the z coordinate of the chosen atom
variable      randzi equal z[942]                
# if the chosen atom is not a surface atom then restart the loop
if            "${randzi} < $(v_wthick - 0.7)" then "jump MDPBB.in loop"
jump MDPBB.in loop
variable      randni equal round(random(1,${ntwall},$s))  # Pick a random "top" wall atom
variable      randni equal round(random(1,1352,$s))  
variable      randni equal round(random(1,1352,234897))  
variable      randatomi equal ${randni}                   # This is to obtain an integer number for atom-id
variable      randatomi equal 1214                   
variable      randzi equal z[${randatomi}]                # Determine the z coordinate of the chosen atom
variable      randzi equal z[1214]                
# if the chosen atom is not a surface atom then restart the loop
if            "${randzi} < $(v_wthick - 0.7)" then "jump MDPBB.in loop"
jump MDPBB.in loop
variable      randni equal round(random(1,${ntwall},$s))  # Pick a random "top" wall atom
variable      randni equal round(random(1,1352,$s))  
variable      randni equal round(random(1,1352,234897))  
variable      randatomi equal ${randni}                   # This is to obtain an integer number for atom-id
variable      randatomi equal 796                   
variable      randzi equal z[${randatomi}]                # Determine the z coordinate of the chosen atom
variable      randzi equal z[796]                
# if the chosen atom is not a surface atom then restart the loop
if            "${randzi} < $(v_wthick - 0.7)" then "jump MDPBB.in loop"
set           atom ${randatomi} type 4                    # Set this grafted wall atom as a new type
set           atom 796 type 4                    
  1 settings made for type
group         twg id ${randatomi}                         # Add this atom to a top-wall-grafted group
group         twg id 796                         
10 atoms in group twg
variable      twgcount equal count(twg)
print         "twg contains ${twgcount}"
twg contains 10
print         "i = $(v_i)"                                # The index i should always be equal to the number of atom in twg
i = 10
variable      x0 equal x[${randatomi}]                    # Determine its x-coord
variable      x0 equal x[796]                    
variable      y0 equal y[${randatomi}]                    # Determine its y-coord
variable      y0 equal y[796]                    
variable      check0 equal ${check}                       # Count the number of atoms in the simulation
variable      check0 equal 1622                       
variable      b equal ${check}+1                          # The grafted bead id will be one higher after being inserted
variable      b equal 1622+1                          
if            "${twgcount} != $(v_i)" then "jump MDPBB.in loop"
# Otherwise insert the chain directly above the chosen wall atom pointing perpendicular to the wall
create_atoms  1 single ${x0} ${y0} ${z0} mol bs 24987 units box remap yes rotate 0 0 0 1
create_atoms  1 single 4.7622031559046 ${y0} ${z0} mol bs 24987 units box remap yes rotate 0 0 0 1
create_atoms  1 single 4.7622031559046 3.9685026299205 ${z0} mol bs 24987 units box remap yes rotate 0 0 0 1
create_atoms  1 single 4.7622031559046 3.9685026299205 17 mol bs 24987 units box remap yes rotate 0 0 0 1
Created 30 atoms
  create_atoms CPU = 7.18e-05 secs
variable      check1 equal ${check}               # Count the new total number of atoms
variable      check1 equal 1652               
# Check that the molecule has indeed been inserted (This check is no longer an issue).
if            "${check1} != ${check0}" then "create_bonds  single/bond 2 ${randatomi} $b" "next i"
create_bonds  single/bond 2 ${randatomi} $b
create_bonds  single/bond 2 796 $b
create_bonds  single/bond 2 796 1623
  2 = max # of 1-2 neighbors
  5 = max # of special neighbors
  special bonds CPU = 0.0020653 secs
next i
jump MDPBB.in loop    # End of the loop
variable      randni equal round(random(1,${ntwall},$s))  # Pick a random "top" wall atom
variable      randni equal round(random(1,1352,$s))  
variable      randni equal round(random(1,1352,234897))  
variable      randatomi equal ${randni}                   # This is to obtain an integer number for atom-id
variable      randatomi equal 1150                   
variable      randzi equal z[${randatomi}]                # Determine the z coordinate of the chosen atom
variable      randzi equal z[1150]                
# if the chosen atom is not a surface atom then restart the loop
if            "${randzi} < $(v_wthick - 0.7)" then "jump MDPBB.in loop"
jump MDPBB.in loop
variable      randni equal round(random(1,${ntwall},$s))  # Pick a random "top" wall atom
variable      randni equal round(random(1,1352,$s))  
variable      randni equal round(random(1,1352,234897))  
variable      randatomi equal ${randni}                   # This is to obtain an integer number for atom-id
variable      randatomi equal 1133                   
variable      randzi equal z[${randatomi}]                # Determine the z coordinate of the chosen atom
variable      randzi equal z[1133]                
# if the chosen atom is not a surface atom then restart the loop
if            "${randzi} < $(v_wthick - 0.7)" then "jump MDPBB.in loop"
jump MDPBB.in loop
variable      randni equal round(random(1,${ntwall},$s))  # Pick a random "top" wall atom
variable      randni equal round(random(1,1352,$s))  
variable      randni equal round(random(1,1352,234897))  
variable      randatomi equal ${randni}                   # This is to obtain an integer number for atom-id
variable      randatomi equal 563                   
variable      randzi equal z[${randatomi}]                # Determine the z coordinate of the chosen atom
variable      randzi equal z[563]                
# if the chosen atom is not a surface atom then restart the loop
if            "${randzi} < $(v_wthick - 0.7)" then "jump MDPBB.in loop"
jump MDPBB.in loop
variable      randni equal round(random(1,${ntwall},$s))  # Pick a random "top" wall atom
variable      randni equal round(random(1,1352,$s))  
variable      randni equal round(random(1,1352,234897))  
variable      randatomi equal ${randni}                   # This is to obtain an integer number for atom-id
variable      randatomi equal 1350                   
variable      randzi equal z[${randatomi}]                # Determine the z coordinate of the chosen atom
variable      randzi equal z[1350]                
# if the chosen atom is not a surface atom then restart the loop
if            "${randzi} < $(v_wthick - 0.7)" then "jump MDPBB.in loop"
jump MDPBB.in loop
variable      randni equal round(random(1,${ntwall},$s))  # Pick a random "top" wall atom
variable      randni equal round(random(1,1352,$s))  
variable      randni equal round(random(1,1352,234897))  
variable      randatomi equal ${randni}                   # This is to obtain an integer number for atom-id
variable      randatomi equal 1318                   
variable      randzi equal z[${randatomi}]                # Determine the z coordinate of the chosen atom
variable      randzi equal z[1318]                
# if the chosen atom is not a surface atom then restart the loop
if            "${randzi} < $(v_wthick - 0.7)" then "jump MDPBB.in loop"
jump MDPBB.in loop
variable      randni equal round(random(1,${ntwall},$s))  # Pick a random "top" wall atom
variable      randni equal round(random(1,1352,$s))  
variable      randni equal round(random(1,1352,234897))  
variable      randatomi equal ${randni}                   # This is to obtain an integer number for atom-id
variable      randatomi equal 979                   
variable      randzi equal z[${randatomi}]                # Determine the z coordinate of the chosen atom
variable      randzi equal z[979]                
# if the chosen atom is not a surface atom then restart the loop
if            "${randzi} < $(v_wthick - 0.7)" then "jump MDPBB.in loop"
set           atom ${randatomi} type 4                    # Set this grafted wall atom as a new type
set           atom 979 type 4                    
  1 settings made for type
group         twg id ${randatomi}                         # Add this atom to a top-wall-grafted group
group         twg id 979                         
10 atoms in group twg
variable      twgcount equal count(twg)
print         "twg contains ${twgcount}"
twg contains 10
print         "i = $(v_i)"                                # The index i should always be equal to the number of atom in twg
i = 11
variable      x0 equal x[${randatomi}]                    # Determine its x-coord
variable      x0 equal x[979]                    
variable      y0 equal y[${randatomi}]                    # Determine its y-coord
variable      y0 equal y[979]                    
variable      check0 equal ${check}                       # Count the number of atoms in the simulation
variable      check0 equal 1652                       
variable      b equal ${check}+1                          # The grafted bead id will be one higher after being inserted
variable      b equal 1652+1                          
if            "${twgcount} != $(v_i)" then "jump MDPBB.in loop"
jump MDPBB.in loop
variable      randni equal round(random(1,${ntwall},$s))  # Pick a random "top" wall atom
variable      randni equal round(random(1,1352,$s))  
variable      randni equal round(random(1,1352,234897))  
variable      randatomi equal ${randni}                   # This is to obtain an integer number for atom-id
variable      randatomi equal 1270                   
variable      randzi equal z[${randatomi}]                # Determine the z coordinate of the chosen atom
variable      randzi equal z[1270]                
# if the chosen atom is not a surface atom then restart the loop
if            "${randzi} < $(v_wthick - 0.7)" then "jump MDPBB.in loop"
jump MDPBB.in loop
variable      randni equal round(random(1,${ntwall},$s))  # Pick a random "top" wall atom
variable      randni equal round(random(1,1352,$s))  
variable      randni equal round(random(1,1352,234897))  
variable      randatomi equal ${randni}                   # This is to obtain an integer number for atom-id
variable      randatomi equal 320                   
variable      randzi equal z[${randatomi}]                # Determine the z coordinate of the chosen atom
variable      randzi equal z[320]                
# if the chosen atom is not a surface atom then restart the loop
if            "${randzi} < $(v_wthick - 0.7)" then "jump MDPBB.in loop"
jump MDPBB.in loop
variable      randni equal round(random(1,${ntwall},$s))  # Pick a random "top" wall atom
variable      randni equal round(random(1,1352,$s))  
variable      randni equal round(random(1,1352,234897))  
variable      randatomi equal ${randni}                   # This is to obtain an integer number for atom-id
variable      randatomi equal 1261                   
variable      randzi equal z[${randatomi}]                # Determine the z coordinate of the chosen atom
variable      randzi equal z[1261]                
# if the chosen atom is not a surface atom then restart the loop
if            "${randzi} < $(v_wthick - 0.7)" then "jump MDPBB.in loop"
jump MDPBB.in loop
variable      randni equal round(random(1,${ntwall},$s))  # Pick a random "top" wall atom
variable      randni equal round(random(1,1352,$s))  
variable      randni equal round(random(1,1352,234897))  
variable      randatomi equal ${randni}                   # This is to obtain an integer number for atom-id
variable      randatomi equal 177                   
variable      randzi equal z[${randatomi}]                # Determine the z coordinate of the chosen atom
variable      randzi equal z[177]                
# if the chosen atom is not a surface atom then restart the loop
if            "${randzi} < $(v_wthick - 0.7)" then "jump MDPBB.in loop"
jump MDPBB.in loop
variable      randni equal round(random(1,${ntwall},$s))  # Pick a random "top" wall atom
variable      randni equal round(random(1,1352,$s))  
variable      randni equal round(random(1,1352,234897))  
variable      randatomi equal ${randni}                   # This is to obtain an integer number for atom-id
variable      randatomi equal 1150                   
variable      randzi equal z[${randatomi}]                # Determine the z coordinate of the chosen atom
variable      randzi equal z[1150]                
# if the chosen atom is not a surface atom then restart the loop
if            "${randzi} < $(v_wthick - 0.7)" then "jump MDPBB.in loop"
jump MDPBB.in loop
variable      randni equal round(random(1,${ntwall},$s))  # Pick a random "top" wall atom
variable      randni equal round(random(1,1352,$s))  
variable      randni equal round(random(1,1352,234897))  
variable      randatomi equal ${randni}                   # This is to obtain an integer number for atom-id
variable      randatomi equal 1263                   
variable      randzi equal z[${randatomi}]                # Determine the z coordinate of the chosen atom
variable      randzi equal z[1263]                
# if the chosen atom is not a surface atom then restart the loop
if            "${randzi} < $(v_wthick - 0.7)" then "jump MDPBB.in loop"
set           atom ${randatomi} type 4                    # Set this grafted wall atom as a new type
set           atom 1263 type 4                    
  1 settings made for type
group         twg id ${randatomi}                         # Add this atom to a top-wall-grafted group
group         twg id 1263                         
11 atoms in group twg
variable      twgcount equal count(twg)
print         "twg contains ${twgcount}"
twg contains 11
print         "i = $(v_i)"                                # The index i should always be equal to the number of atom in twg
i = 11
variable      x0 equal x[${randatomi}]                    # Determine its x-coord
variable      x0 equal x[1263]                    
variable      y0 equal y[${randatomi}]                    # Determine its y-coord
variable      y0 equal y[1263]                    
variable      check0 equal ${check}                       # Count the number of atoms in the simulation
variable      check0 equal 1652                       
variable      b equal ${check}+1                          # The grafted bead id will be one higher after being inserted
variable      b equal 1652+1                          
if            "${twgcount} != $(v_i)" then "jump MDPBB.in loop"
# Otherwise insert the chain directly above the chosen wall atom pointing perpendicular to the wall
create_atoms  1 single ${x0} ${y0} ${z0} mol bs 24987 units box remap yes rotate 0 0 0 1
create_atoms  1 single 5.5559036818887 ${y0} ${z0} mol bs 24987 units box remap yes rotate 0 0 0 1
create_atoms  1 single 5.5559036818887 17.4614115716502 ${z0} mol bs 24987 units box remap yes rotate 0 0 0 1
create_atoms  1 single 5.5559036818887 17.4614115716502 17 mol bs 24987 units box remap yes rotate 0 0 0 1
Created 30 atoms
  create_atoms CPU = 4.82e-05 secs
variable      check1 equal ${check}               # Count the new total number of atoms
variable      check1 equal 1682               
# Check that the molecule has indeed been inserted (This check is no longer an issue).
if            "${check1} != ${check0}" then "create_bonds  single/bond 2 ${randatomi} $b" "next i"
create_bonds  single/bond 2 ${randatomi} $b
create_bonds  single/bond 2 1263 $b
create_bonds  single/bond 2 1263 1653
  2 = max # of 1-2 neighbors
  5 = max # of special neighbors
  special bonds CPU = 0.0036316 secs
next i
jump MDPBB.in loop    # End of the loop
variable      randni equal round(random(1,${ntwall},$s))  # Pick a random "top" wall atom
variable      randni equal round(random(1,1352,$s))  
variable      randni equal round(random(1,1352,234897))  
variable      randatomi equal ${randni}                   # This is to obtain an integer number for atom-id
variable      randatomi equal 463                   
variable      randzi equal z[${randatomi}]                # Determine the z coordinate of the chosen atom
variable      randzi equal z[463]                
# if the chosen atom is not a surface atom then restart the loop
if            "${randzi} < $(v_wthick - 0.7)" then "jump MDPBB.in loop"
jump MDPBB.in loop
variable      randni equal round(random(1,${ntwall},$s))  # Pick a random "top" wall atom
variable      randni equal round(random(1,1352,$s))  
variable      randni equal round(random(1,1352,234897))  
variable      randatomi equal ${randni}                   # This is to obtain an integer number for atom-id
variable      randatomi equal 352                   
variable      randzi equal z[${randatomi}]                # Determine the z coordinate of the chosen atom
variable      randzi equal z[352]                
# if the chosen atom is not a surface atom then restart the loop
if            "${randzi} < $(v_wthick - 0.7)" then "jump MDPBB.in loop"
jump MDPBB.in loop
variable      randni equal round(random(1,${ntwall},$s))  # Pick a random "top" wall atom
variable      randni equal round(random(1,1352,$s))  
variable      randni equal round(random(1,1352,234897))  
variable      randatomi equal ${randni}                   # This is to obtain an integer number for atom-id
variable      randatomi equal 898                   
variable      randzi equal z[${randatomi}]                # Determine the z coordinate of the chosen atom
variable      randzi equal z[898]                
# if the chosen atom is not a surface atom then restart the loop
if            "${randzi} < $(v_wthick - 0.7)" then "jump MDPBB.in loop"
jump MDPBB.in loop
variable      randni equal round(random(1,${ntwall},$s))  # Pick a random "top" wall atom
variable      randni equal round(random(1,1352,$s))  
variable      randni equal round(random(1,1352,234897))  
variable      randatomi equal ${randni}                   # This is to obtain an integer number for atom-id
variable      randatomi equal 631                   
variable      randzi equal z[${randatomi}]                # Determine the z coordinate of the chosen atom
variable      randzi equal z[631]                
# if the chosen atom is not a surface atom then restart the loop
if            "${randzi} < $(v_wthick - 0.7)" then "jump MDPBB.in loop"
jump MDPBB.in loop
variable      randni equal round(random(1,${ntwall},$s))  # Pick a random "top" wall atom
variable      randni equal round(random(1,1352,$s))  
variable      randni equal round(random(1,1352,234897))  
variable      randatomi equal ${randni}                   # This is to obtain an integer number for atom-id
variable      randatomi equal 196                   
variable      randzi equal z[${randatomi}]                # Determine the z coordinate of the chosen atom
variable      randzi equal z[196]                
# if the chosen atom is not a surface atom then restart the loop
if            "${randzi} < $(v_wthick - 0.7)" then "jump MDPBB.in loop"
jump MDPBB.in loop
variable      randni equal round(random(1,${ntwall},$s))  # Pick a random "top" wall atom
variable      randni equal round(random(1,1352,$s))  
variable      randni equal round(random(1,1352,234897))  
variable      randatomi equal ${randni}                   # This is to obtain an integer number for atom-id
variable      randatomi equal 1245                   
variable      randzi equal z[${randatomi}]                # Determine the z coordinate of the chosen atom
variable      randzi equal z[1245]                
# if the chosen atom is not a surface atom then restart the loop
if            "${randzi} < $(v_wthick - 0.7)" then "jump MDPBB.in loop"
jump MDPBB.in loop
variable      randni equal round(random(1,${ntwall},$s))  # Pick a random "top" wall atom
variable      randni equal round(random(1,1352,$s))  
variable      randni equal round(random(1,1352,234897))  
variable      randatomi equal ${randni}                   # This is to obtain an integer number for atom-id
variable      randatomi equal 1293                   
variable      randzi equal z[${randatomi}]                # Determine the z coordinate of the chosen atom
variable      randzi equal z[1293]                
# if the chosen atom is not a surface atom then restart the loop
if            "${randzi} < $(v_wthick - 0.7)" then "jump MDPBB.in loop"
jump MDPBB.in loop
variable      randni equal round(random(1,${ntwall},$s))  # Pick a random "top" wall atom
variable      randni equal round(random(1,1352,$s))  
variable      randni equal round(random(1,1352,234897))  
variable      randatomi equal ${randni}                   # This is to obtain an integer number for atom-id
variable      randatomi equal 1223                   
variable      randzi equal z[${randatomi}]                # Determine the z coordinate of the chosen atom
variable      randzi equal z[1223]                
# if the chosen atom is not a surface atom then restart the loop
if            "${randzi} < $(v_wthick - 0.7)" then "jump MDPBB.in loop"
set           atom ${randatomi} type 4                    # Set this grafted wall atom as a new type
set           atom 1223 type 4                    
  1 settings made for type
group         twg id ${randatomi}                         # Add this atom to a top-wall-grafted group
group         twg id 1223                         
12 atoms in group twg
variable      twgcount equal count(twg)
print         "twg contains ${twgcount}"
twg contains 12
print         "i = $(v_i)"                                # The index i should always be equal to the number of atom in twg
i = 12
variable      x0 equal x[${randatomi}]                    # Determine its x-coord
variable      x0 equal x[1223]                    
variable      y0 equal y[${randatomi}]                    # Determine its y-coord
variable      y0 equal y[1223]                    
variable      check0 equal ${check}                       # Count the number of atoms in the simulation
variable      check0 equal 1682                       
variable      b equal ${check}+1                          # The grafted bead id will be one higher after being inserted
variable      b equal 1682+1                          
if            "${twgcount} != $(v_i)" then "jump MDPBB.in loop"
# Otherwise insert the chain directly above the chosen wall atom pointing perpendicular to the wall
create_atoms  1 single ${x0} ${y0} ${z0} mol bs 24987 units box remap yes rotate 0 0 0 1
create_atoms  1 single 10.3181068377933 ${y0} ${z0} mol bs 24987 units box remap yes rotate 0 0 0 1
create_atoms  1 single 10.3181068377933 15.874010519682 ${z0} mol bs 24987 units box remap yes rotate 0 0 0 1
create_atoms  1 single 10.3181068377933 15.874010519682 17 mol bs 24987 units box remap yes rotate 0 0 0 1
Created 30 atoms
  create_atoms CPU = 8.23e-05 secs
variable      check1 equal ${check}               # Count the new total number of atoms
variable      check1 equal 1712               
# Check that the molecule has indeed been inserted (This check is no longer an issue).
if            "${check1} != ${check0}" then "create_bonds  single/bond 2 ${randatomi} $b" "next i"
create_bonds  single/bond 2 ${randatomi} $b
create_bonds  single/bond 2 1223 $b
create_bonds  single/bond 2 1223 1683
  2 = max # of 1-2 neighbors
  5 = max # of special neighbors
  special bonds CPU = 0.0020869 secs
next i
jump MDPBB.in loop    # End of the loop
variable      randni equal round(random(1,${ntwall},$s))  # Pick a random "top" wall atom
variable      randni equal round(random(1,1352,$s))  
variable      randni equal round(random(1,1352,234897))  
variable      randatomi equal ${randni}                   # This is to obtain an integer number for atom-id
variable      randatomi equal 1078                   
variable      randzi equal z[${randatomi}]                # Determine the z coordinate of the chosen atom
variable      randzi equal z[1078]                
# if the chosen atom is not a surface atom then restart the loop
if            "${randzi} < $(v_wthick - 0.7)" then "jump MDPBB.in loop"
jump MDPBB.in loop
variable      randni equal round(random(1,${ntwall},$s))  # Pick a random "top" wall atom
variable      randni equal round(random(1,1352,$s))  
variable      randni equal round(random(1,1352,234897))  
variable      randatomi equal ${randni}                   # This is to obtain an integer number for atom-id
variable      randatomi equal 594                   
variable      randzi equal z[${randatomi}]                # Determine the z coordinate of the chosen atom
variable      randzi equal z[594]                
# if the chosen atom is not a surface atom then restart the loop
if            "${randzi} < $(v_wthick - 0.7)" then "jump MDPBB.in loop"
jump MDPBB.in loop
variable      randni equal round(random(1,${ntwall},$s))  # Pick a random "top" wall atom
variable      randni equal round(random(1,1352,$s))  
variable      randni equal round(random(1,1352,234897))  
variable      randatomi equal ${randni}                   # This is to obtain an integer number for atom-id
variable      randatomi equal 502                   
variable      randzi equal z[${randatomi}]                # Determine the z coordinate of the chosen atom
variable      randzi equal z[502]                
# if the chosen atom is not a surface atom then restart the loop
if            "${randzi} < $(v_wthick - 0.7)" then "jump MDPBB.in loop"
jump MDPBB.in loop
variable      randni equal round(random(1,${ntwall},$s))  # Pick a random "top" wall atom
variable      randni equal round(random(1,1352,$s))  
variable      randni equal round(random(1,1352,234897))  
variable      randatomi equal ${randni}                   # This is to obtain an integer number for atom-id
variable      randatomi equal 948                   
variable      randzi equal z[${randatomi}]                # Determine the z coordinate of the chosen atom
variable      randzi equal z[948]                
# if the chosen atom is not a surface atom then restart the loop
if            "${randzi} < $(v_wthick - 0.7)" then "jump MDPBB.in loop"
set           atom ${randatomi} type 4                    # Set this grafted wall atom as a new type
set           atom 948 type 4                    
  1 settings made for type
group         twg id ${randatomi}                         # Add this atom to a top-wall-grafted group
group         twg id 948                         
13 atoms in group twg
variable      twgcount equal count(twg)
print         "twg contains ${twgcount}"
twg contains 13
print         "i = $(v_i)"                                # The index i should always be equal to the number of atom in twg
i = 13
variable      x0 equal x[${randatomi}]                    # Determine its x-coord
variable      x0 equal x[948]                    
variable      y0 equal y[${randatomi}]                    # Determine its y-coord
variable      y0 equal y[948]                    
variable      check0 equal ${check}                       # Count the number of atoms in the simulation
variable      check0 equal 1712                       
variable      b equal ${check}+1                          # The grafted bead id will be one higher after being inserted
variable      b equal 1712+1                          
if            "${twgcount} != $(v_i)" then "jump MDPBB.in loop"
# Otherwise insert the chain directly above the chosen wall atom pointing perpendicular to the wall
create_atoms  1 single ${x0} ${y0} ${z0} mol bs 24987 units box remap yes rotate 0 0 0 1
create_atoms  1 single 3.1748021039364 ${y0} ${z0} mol bs 24987 units box remap yes rotate 0 0 0 1
create_atoms  1 single 3.1748021039364 8.7307057858251 ${z0} mol bs 24987 units box remap yes rotate 0 0 0 1
create_atoms  1 single 3.1748021039364 8.7307057858251 17 mol bs 24987 units box remap yes rotate 0 0 0 1
Created 30 atoms
  create_atoms CPU = 6.37e-05 secs
variable      check1 equal ${check}               # Count the new total number of atoms
variable      check1 equal 1742               
# Check that the molecule has indeed been inserted (This check is no longer an issue).
if            "${check1} != ${check0}" then "create_bonds  single/bond 2 ${randatomi} $b" "next i"
create_bonds  single/bond 2 ${randatomi} $b
create_bonds  single/bond 2 948 $b
create_bonds  single/bond 2 948 1713
  2 = max # of 1-2 neighbors
  5 = max # of special neighbors
  special bonds CPU = 0.0096211 secs
next i
jump MDPBB.in loop    # End of the loop
variable      randni equal round(random(1,${ntwall},$s))  # Pick a random "top" wall atom
variable      randni equal round(random(1,1352,$s))  
variable      randni equal round(random(1,1352,234897))  
variable      randatomi equal ${randni}                   # This is to obtain an integer number for atom-id
variable      randatomi equal 127                   
variable      randzi equal z[${randatomi}]                # Determine the z coordinate of the chosen atom
variable      randzi equal z[127]                
# if the chosen atom is not a surface atom then restart the loop
if            "${randzi} < $(v_wthick - 0.7)" then "jump MDPBB.in loop"
jump MDPBB.in loop
variable      randni equal round(random(1,${ntwall},$s))  # Pick a random "top" wall atom
variable      randni equal round(random(1,1352,$s))  
variable      randni equal round(random(1,1352,234897))  
variable      randatomi equal ${randni}                   # This is to obtain an integer number for atom-id
variable      randatomi equal 512                   
variable      randzi equal z[${randatomi}]                # Determine the z coordinate of the chosen atom
variable      randzi equal z[512]                
# if the chosen atom is not a surface atom then restart the loop
if            "${randzi} < $(v_wthick - 0.7)" then "jump MDPBB.in loop"
jump MDPBB.in loop
variable      randni equal round(random(1,${ntwall},$s))  # Pick a random "top" wall atom
variable      randni equal round(random(1,1352,$s))  
variable      randni equal round(random(1,1352,234897))  
variable      randatomi equal ${randni}                   # This is to obtain an integer number for atom-id
variable      randatomi equal 590                   
variable      randzi equal z[${randatomi}]                # Determine the z coordinate of the chosen atom
variable      randzi equal z[590]                
# if the chosen atom is not a surface atom then restart the loop
if            "${randzi} < $(v_wthick - 0.7)" then "jump MDPBB.in loop"
jump MDPBB.in loop
variable      randni equal round(random(1,${ntwall},$s))  # Pick a random "top" wall atom
variable      randni equal round(random(1,1352,$s))  
variable      randni equal round(random(1,1352,234897))  
variable      randatomi equal ${randni}                   # This is to obtain an integer number for atom-id
variable      randatomi equal 445                   
variable      randzi equal z[${randatomi}]                # Determine the z coordinate of the chosen atom
variable      randzi equal z[445]                
# if the chosen atom is not a surface atom then restart the loop
if            "${randzi} < $(v_wthick - 0.7)" then "jump MDPBB.in loop"
jump MDPBB.in loop
variable      randni equal round(random(1,${ntwall},$s))  # Pick a random "top" wall atom
variable      randni equal round(random(1,1352,$s))  
variable      randni equal round(random(1,1352,234897))  
variable      randatomi equal ${randni}                   # This is to obtain an integer number for atom-id
variable      randatomi equal 825                   
variable      randzi equal z[${randatomi}]                # Determine the z coordinate of the chosen atom
variable      randzi equal z[825]                
# if the chosen atom is not a surface atom then restart the loop
if            "${randzi} < $(v_wthick - 0.7)" then "jump MDPBB.in loop"
jump MDPBB.in loop
variable      randni equal round(random(1,${ntwall},$s))  # Pick a random "top" wall atom
variable      randni equal round(random(1,1352,$s))  
variable      randni equal round(random(1,1352,234897))  
variable      randatomi equal ${randni}                   # This is to obtain an integer number for atom-id
variable      randatomi equal 387                   
variable      randzi equal z[${randatomi}]                # Determine the z coordinate of the chosen atom
variable      randzi equal z[387]                
# if the chosen atom is not a surface atom then restart the loop
if            "${randzi} < $(v_wthick - 0.7)" then "jump MDPBB.in loop"
jump MDPBB.in loop
variable      randni equal round(random(1,${ntwall},$s))  # Pick a random "top" wall atom
variable      randni equal round(random(1,1352,$s))  
variable      randni equal round(random(1,1352,234897))  
variable      randatomi equal ${randni}                   # This is to obtain an integer number for atom-id
variable      randatomi equal 323                   
variable      randzi equal z[${randatomi}]                # Determine the z coordinate of the chosen atom
variable      randzi equal z[323]                
# if the chosen atom is not a surface atom then restart the loop
if            "${randzi} < $(v_wthick - 0.7)" then "jump MDPBB.in loop"
jump MDPBB.in loop
variable      randni equal round(random(1,${ntwall},$s))  # Pick a random "top" wall atom
variable      randni equal round(random(1,1352,$s))  
variable      randni equal round(random(1,1352,234897))  
variable      randatomi equal ${randni}                   # This is to obtain an integer number for atom-id
variable      randatomi equal 117                   
variable      randzi equal z[${randatomi}]                # Determine the z coordinate of the chosen atom
variable      randzi equal z[117]                
# if the chosen atom is not a surface atom then restart the loop
if            "${randzi} < $(v_wthick - 0.7)" then "jump MDPBB.in loop"
jump MDPBB.in loop
variable      randni equal round(random(1,${ntwall},$s))  # Pick a random "top" wall atom
variable      randni equal round(random(1,1352,$s))  
variable      randni equal round(random(1,1352,234897))  
variable      randatomi equal ${randni}                   # This is to obtain an integer number for atom-id
variable      randatomi equal 921                   
variable      randzi equal z[${randatomi}]                # Determine the z coordinate of the chosen atom
variable      randzi equal z[921]                
# if the chosen atom is not a surface atom then restart the loop
if            "${randzi} < $(v_wthick - 0.7)" then "jump MDPBB.in loop"
jump MDPBB.in loop
variable      randni equal round(random(1,${ntwall},$s))  # Pick a random "top" wall atom
[...]
 1757000    11.129555    1.5252208    9.6043338  -0.30202147    1.0170397    1.3140819   0.81971744   -3.5502959            3        5.535    7.7695057    7.8989254   0.93656884   0.02382156   -0.2337257 -0.078040401    5.3551648    5.3431252    1.0218195        0.075     2.089319          0.5    0.1135355    4.4039088    2.7957954    30.801768 -0.024257504  -0.41494836  0.010260673   0.35918123   -0.8955876   0.30002379 
 1758000    11.080684    1.4736067     9.607077  -0.30700898   0.98262264    1.2750567   0.78835466   -3.5502959            3    5.2781928    7.5051952    7.8162557   0.51312743 -0.031524793  0.056767337  0.066799612    5.1052382    5.0920162    1.0293709        0.075    2.1184203          0.5   0.11437454    4.3716022    2.8129265    30.801768 -0.026251591  -0.40348929  0.030650017   0.41756204   -1.3781887  -0.28990653 
 1759000    11.096739    1.4923259     9.604413  -0.28831844   0.99510485    1.2980318   0.79385794   -3.5502959            3    5.7734764    7.9808483     8.047456     1.292125 -0.020077183 -0.0042585969 -0.073403741    5.5993145    5.5839452    1.0273734        0.075    2.1014425          0.5    0.1141526    4.3801017    2.8069805    30.801768 -0.033353425   -0.3671279  0.008699262   0.35262513   0.06197845    1.5425068 
 1760000    11.099647    1.5108612    9.5887857  -0.30113742    1.0074644    1.2683411   0.83420894   -3.5502959            3     5.497647    7.7143492    7.8970435   0.88154835 -0.034240505  -0.16472792 -0.012350947    5.3146326     5.312451     1.005977        0.075    2.0753724          0.5   0.11177522    4.4732632    2.8129894    30.801768 -0.0042262951  -0.37967682 -0.0020612111   0.34475169    3.0431335   0.55843036 
 1761000    11.123405    1.4985287    9.6248767  -0.30351248   0.99924096    1.2643089   0.82319291   -3.5502959            3    5.7551133    7.9371744     8.015697    1.3124685 -0.037851804 -0.016998059   0.12494219    5.5745157    5.5705061    1.0257068        0.075    2.0775279          0.5   0.11396742    4.3872186    2.7996993    30.801768 -0.025692039   -0.3613292 -0.012630744   0.41322367   -2.1079467    4.0543638 
 1762000    11.104847    1.4896748    9.6151719  -0.29517084   0.99333706    1.2669731    0.8115842   -3.5502959            3    5.4431792    7.6829721    7.8693558   0.77720977 -0.017338312  -0.27616555  0.024656994    5.2651284     5.258183    1.0074678        0.075    2.0515084          0.5   0.11194087    4.4666439    2.7934716    30.801768  0.014051421  -0.36071887  -0.01333344   0.31617301    2.9954885    4.4201031 
 1763000    11.139708    1.4881037     9.651604  -0.28490527   0.99228945     1.283403   0.79890395   -3.5502959            3    5.5351066    7.7954798    7.8913457   0.91849419 -0.010371664 -0.089167438 -0.070506295    5.3598376    5.3477113     1.037182        0.075    2.0395933          0.5   0.11524244    4.3386794    2.8302762    30.801768  0.036730082  -0.36495265 -0.0026606047   0.37500949   0.18877637    2.2175669 
 1764000    11.108842    1.5003167    9.6085254   -0.2998343    1.0004332    1.2805973   0.81433824   -3.5502959            3    5.7951703    7.9878955    8.1624201    1.2351951 0.0025241462  0.026182763  -0.02919493    5.6165152    5.6081847    1.0238317        0.075    2.0213832          0.5   0.11375908    4.3952536    2.8265047    30.801768  0.026568823  -0.28853121 -0.023744627   0.36203411   0.51107715    1.4356335 
 1765000    11.100707    1.4999019    9.6008047  -0.29269387    1.0001567    1.2856274   0.81052972   -3.5502959            3    5.5555101    7.8010667    7.9518547   0.91360891 -0.040965028 -0.055723105 0.0069490534    5.3776906      5.36779    1.0205992        0.075    2.0169162          0.5   0.11339992    4.4091743     2.793961    30.801768  0.026556614  -0.41267281 -0.0092488357   0.41599795   -2.6232772    1.1565976 
 1766000    11.133324    1.4949883    9.6383355  -0.28369459   0.99688019     1.285487    0.8051648   -3.5502959            3    5.6808549    7.9270506    8.0394702    1.0760438 0.0052587382  -0.11557437 -0.034320053    5.5042124    5.4931553    1.0278135        0.075    2.0344398          0.5    0.1142015    4.3782262    2.8202141    30.801768  0.024303069  -0.34239161  0.024178621   0.41480042   0.32916002    5.6870333 
 1767000    11.134645     1.506883    9.6277617  -0.29382817    1.0048118    1.3139019   0.79946647   -3.5502959            3    5.6223241    7.7296891    8.0164047    1.1208784 -0.010592625  -0.31117349 -0.022268846    5.4469317    5.4304755    1.0346981        0.075     2.077826          0.5   0.11496645    4.3490948    2.8190405    30.801768 -0.00041700118  -0.43042212  0.021484693   0.38181893    1.0597483    3.3681986 
 1768000    11.149757    1.5514638    9.5982935  -0.29266196    1.0345389    1.2951327   0.86148167   -3.5502959            3    5.6093938    7.9133535     7.936107   0.97872101  0.011809393  -0.26807859 -0.031166554    5.4203962    5.4202859    1.0224811        0.075    2.0826552          0.5   0.11360901    4.4010594     2.804667    30.801768 0.0028030259  -0.42921547 5.1393194e-05   0.35191139   0.39324933    1.7076625 
 1769000    11.144297    1.5116878    9.6326096  -0.28467056    1.0080157    1.3134965   0.80507377   -3.5502959            3    5.7026356    7.9495072    8.0400942    1.1183056 0.0036797787  -0.15114238   0.12041233    5.5260131    5.5108463    1.0244586        0.075    2.0441702          0.5   0.11382873    4.3925642    2.8158576    30.801768  0.019999303  -0.36748332 -0.012024716   0.31024466    2.2583855    3.1816523 
 1770000    11.097482    1.5026203    9.5948622  -0.29728189    1.0019693    1.2937948   0.80811362   -3.5502959            3    5.6987326    7.8539208    8.0817617    1.1605154  0.013171841 -0.053920855 -0.0032786096    5.5214432      5.50982    1.0131718        0.075    2.0378861          0.5   0.11257464    4.4414976    2.7802193    30.801768 -0.018688658  -0.35162037  0.020803206   0.44689153  -0.43248362    6.4206971 
 1771000    11.122338    1.5068131    9.6155247  -0.30265334    1.0047651    1.3218444   0.79410262   -3.5502959            3    5.6780367     7.841483    8.0293137    1.1633134 -0.0097816102   -0.2757238  0.030610637    5.5038211    5.4850284    1.0250067        0.075    2.0535168          0.5   0.11388963    4.3902154    2.8000721    30.801768  0.017847917  -0.42237131    0.0247201   0.38735703    1.5028329    4.7825992 
 1772000    11.160174    1.4991706    9.6610035  -0.27818605   0.99966904    1.2887289   0.80765312   -3.5502959            3    5.6202624    7.8751236    8.0271336   0.95853009  0.012603257  0.050725648  0.057058736     5.443074    5.4320895    1.0255015        0.075     2.032518          0.5   0.11394461    4.3880972    2.8151657    30.801768 -0.0096039854  -0.37050525 -0.027952786   0.37311024   -1.5782134    0.5574363 
 1773000    11.110717    1.4922617    9.6184557  -0.28103698   0.99506207    1.2774681   0.80747297   -3.5502959            3    5.5325768    7.7606481    7.9086571   0.92842525  0.018928081  -0.33988589   0.11325053    5.3554279    5.3460481    1.0120761        0.075     2.037137          0.5    0.1124529    4.4463058    2.7646663    30.801768 -0.0039868586  -0.40991956   -0.0205655   0.43753725   0.51225036   -1.7383898 
 1774000     11.06673     1.492146    9.5745837  -0.30909237   0.99498489    1.2924225   0.79739139   -3.5502959            3    5.5206581    7.7640071    7.9354198    0.8625473 -0.033939356   0.12778921  0.029422789     5.345721    5.3319459    1.0405617        0.075    2.0501949          0.5   0.11561796    4.3245876    2.7989726    30.801768 -0.014893016  -0.33862329 0.0040144826   0.33452132   -1.2572184    5.5798676 
 1775000    11.082833    1.4887827      9.59405  -0.29428288   0.99274223    1.2586542   0.81612997   -3.5502959            3    5.4731864    7.7970073    7.8403012    0.7822508 -0.010097213  -0.14415597  0.084326439    5.2941383    5.2894048    1.0181356        0.075    2.0776868          0.5   0.11312618    4.4198435    2.7989289    30.801768 0.0014702016  -0.31014977   0.01794553   0.45294822   0.81750493   -2.1251567 
 1776000    11.092077    1.4782089     9.613868  -0.31194507   0.98569145    1.2576904   0.80502535   -3.5502959            3    5.6508508    7.8236238    7.9864019    1.1425266 -0.0049587717  -0.14013285 -0.020487479    5.4742389    5.4672099    1.0312274        0.075    2.0617906          0.5   0.11458083    4.3637318    2.8053172    30.801768  0.030976191  -0.38131457 -0.0030437672   0.36423562  -0.59514112      10.6487 
 1777000    11.099766    1.4813575    9.6184081  -0.28954803   0.98779101    1.2839255   0.79106213   -3.5502959            3    5.5489234    7.7985821    7.9322885   0.91589966 0.0030540513  -0.19126341  0.041242157    5.3753749    5.3614519    1.0113462        0.075     2.080395          0.5    0.1123718     4.449515    2.7912014    30.801768 -0.001827983  -0.34187854  0.034956767   0.36051502    2.4897693  -0.99972041 
 1778000    11.081019    1.4794222    9.6015973  -0.30141588   0.98650048     1.302465   0.77657308   -3.5502959            3    5.7159046    7.9633571    8.0661719    1.1181848 -0.020269872 -0.071593523   -0.1229658    5.5455348     5.525726    1.0490152        0.075    2.0775499          0.5   0.11655724    4.2897377    2.8216032    30.801768  0.018360882  -0.50357039 -0.0077038503   0.38228016  0.028521563    4.6180435 
 1779000    11.139113    1.5037634    9.6353495  -0.28028278    1.0027316    1.2695898   0.82549328   -3.5502959            3    5.4497443    7.7361824     7.858693    0.7543574 -0.012977298    0.2590566 -0.029911673     5.268642     5.264366    1.0172914        0.075    2.0205357          0.5   0.11303238    4.4235113    2.8129709    30.801768  0.058470101  -0.32265463 -0.0079302514   0.36319921   -2.1238148    2.9431147 
 1780000    11.121073    1.5136447    9.6074286  -0.29486644    1.0093206    1.3249689   0.79961208   -3.5502959            3    5.5042147    7.7326927    7.9423845   0.83756677  0.011683468  -0.18488013 0.0079377137    5.3287904    5.3107502     1.033091        0.075    2.0501014          0.5   0.11478789    4.3558602    2.8125743    30.801768  0.028024921  -0.34194228 -0.032506449   0.31902905  -0.20201982    7.2722479 
 1781000    11.122058    1.4778177    9.6442407  -0.29564594   0.98543062     1.277642   0.79131195   -3.5502959            3     5.540593     7.753185    7.9408755   0.92771847 -0.019588238  -0.17963488  0.021462762    5.3669896    5.3540389    1.0140064        0.075    2.0776404          0.5   0.11266737     4.437842    2.7997532    30.801768 -0.012404729  -0.36486137 -0.0020939087   0.42185333   -1.3913609    2.4593551 
 1782000    11.119509    1.4955135    9.6239956  -0.28196302   0.99723043    1.3078187   0.79088527   -3.5502959            3    5.4761768    7.7895808    7.7786007   0.86034898 -0.017827766 -0.052253149  -0.16484794    5.3026671    5.2852166    1.0175518        0.075    2.0753975          0.5   0.11306131    4.4223793    2.8230251    30.801768  0.010877712  -0.30050142  0.031853167   0.37520472   0.89320035    2.7892193 
 1783000     11.15391    1.5183246    9.6355849  -0.29235418    1.0124412    1.3303115   0.80125498   -3.5502959            3    5.5401782    7.7407031    7.9552483   0.92458306 -0.023418011  -0.15362881 -0.088048848    5.3643934    5.3459336    1.0264444        0.075    2.0725379          0.5   0.11404938    4.3840661    2.8314973    30.801768  0.022610881  -0.36512161 -0.022532244    0.3834752   -1.5417802    5.8506657 
 1784000    11.134477    1.4927861    9.6416905  -0.29229345   0.99541175    1.2547995   0.82314271   -3.5502959            3    5.4881135    7.7046413    7.9420637   0.81763549 0.0021896564  0.075341006 -0.035281518    5.3075269    5.3048948   0.99844204        0.075     2.090773          0.5     0.110938    4.5070218     2.827147    30.801768 -0.038837941  -0.36224597  -0.01001146   0.36967889    -1.966008    1.7254867 
 1785000    11.103158    1.4936344    9.6095239  -0.29888151   0.99597741    1.3057123   0.79019973   -3.5502959            3      5.58709    7.7927451    7.9381693    1.0303554 0.00028253329 -0.087964987 -0.011382915    5.4137306    5.3964372    1.0128897        0.075    2.0491406          0.5    0.1125433    4.4427345    2.8123576    30.801768  0.018665903  -0.41724086 0.0036453156   0.43006527   0.19299589    3.1714189 
 1786000    11.115877    1.4893252    9.6265515  -0.29160033   0.99310395    1.2940651   0.79316464   -3.5502959            3    5.6004683    7.8639222    7.9278178    1.0096648  0.024449537   0.19756432  0.047595529    5.4264585    5.4115162    1.0179168        0.075    2.0670289          0.5   0.11310186    4.4207937    2.8266773    30.801768 0.0067863534  -0.30499199  0.020018055   0.38206152   -1.2198783    4.6412944 
 1787000    11.154161     1.493964    9.6601973  -0.27712634   0.99619717    1.3060413   0.79034688   -3.5502959            3    5.7188408    7.9497422    8.0255066    1.1812736  0.008466317 -0.0015637956  0.051764511    5.5454492      5.52814    1.0230195        0.075    2.0812696          0.5   0.11366883    4.3987432     2.792851    30.801768 -0.0017888085  -0.30542751 0.0070926867   0.35906052 -0.086599941    5.7933968 
 1788000       11.095    1.4919469    9.6030533  -0.29480884   0.99485215    1.2870975   0.80071436   -3.5502959            3    5.5198706    7.7982431    7.9346899   0.82667876  0.021742358  -0.07764204  0.044650247    5.3442044    5.3319359    1.0360665        0.075    2.0504869          0.5    0.1151185    4.3433505    2.8147592    30.801768 -0.00049872754  -0.40369932 -0.0019776021   0.40764276   0.37366489     -1.42424 
 1789000    11.119283    1.4911099    9.6281729  -0.29079085   0.99429404    1.2919593   0.79654874   -3.5502959            3    5.7771524    7.9652786    8.0881847     1.277994 0.0004509138  -0.15702679  0.069596562    5.6024002    5.5885078    1.0141153        0.075     2.080081          0.5   0.11267947    4.4373654    2.7911107    30.801768 0.0041678676  -0.30300231 -0.010221491   0.41654913   -2.2338775    8.1673865 
 1790000    11.093216    1.4850921    9.6081244  -0.29012605   0.99028124    1.2985082   0.78550509   -3.5502959            3    5.5003395    7.7508851    7.9528348   0.79729867 -0.014500749 -0.090827736  0.050993277    5.3280101    5.3107387    1.0523101        0.075    2.1043942          0.5   0.11692334    4.2763061    2.8634449    30.801768 -0.0024792187  -0.39838813 -0.013866693   0.39941221   0.99124467     2.379269 
 1791000    11.081412    1.4733691    9.6080429  -0.29295827    0.9824642    1.2738217   0.78891269   -3.5502959            3    5.3229082    7.6206301    7.7299554   0.61813897 0.0022296933  -0.15819907 -0.024644186    5.1498312    5.1369119     1.015954        0.075    2.0624373          0.5   0.11288378    4.4293342    2.8131376    30.801768 -0.015808539  -0.37371609 -0.037323419   0.36226028    2.8209692    3.3839421 
 1792000    11.114765    1.5091783    9.6055866  -0.31191038    1.0063423    1.3375756   0.78625998   -3.5502959            3    5.6005972     7.800126    7.9705284     1.031137 0.0080231355  -0.22193614 0.0027422503    5.4281021    5.4052919    1.0402208        0.075     2.057683          0.5   0.11558009    4.3260046    2.8004295    30.801768 -0.039268613  -0.46411236  0.023982315    0.3871669  -0.45160636   -1.3097157 
 1793000    11.115971    1.5184381    9.5975334  -0.27984368    1.0125169    1.3049736    0.8182449   -3.5502959            3      5.49619    7.7910638    7.8980273   0.79947876 -0.022156817 -0.038217947  0.054539201    5.3166779    5.3056451    1.0217185        0.075    2.0720565          0.5   0.11352428    4.4043441    2.8244685    30.801768  0.018916079  -0.36608761 0.0049614142   0.45466205    2.1986997  -0.39503983 
 1794000    11.128852    1.5129051     9.615947  -0.30861237    1.0088274    1.3056521   0.81164686   -3.5502959            3    5.4983227    7.7082525    7.8883074   0.89840826 0.0055369024  -0.20602259 -0.023551243    5.3202581    5.3076788    1.0383706        0.075    2.0872144          0.5   0.11537451    4.3337129    2.8054639    30.801768 -0.028198899  -0.42394936 -0.033770281    0.4542975  -0.15716308    -2.422846 
 1795000    11.137167      1.51682    9.6203471  -0.27482594    1.0114379    1.2946432   0.82332289   -3.5502959            3    5.6529309    7.9431599    7.9346567     1.080976  0.019977617  -0.16601094   0.10566329    5.4723047    5.4638944    1.0111671        0.075    2.0751682          0.5    0.1123519     4.450303    2.8071191    30.801768  0.011597468  -0.35638594 -0.022060217   0.33155578 -0.0057314453    5.9835095 
 1796000    11.054968    1.4568281    9.5981402  -0.28329997    0.9714344    1.2509592   0.78575415   -3.5502959            3    5.6316728    7.9430342    7.9086065    1.0433775 0.0045301765   0.24612204  0.075153683    5.4592887    5.4490148    1.0162853        0.075    2.0327033          0.5   0.11292059    4.4278906    2.7946992    30.801768 -0.0037504182  -0.36109465 -0.017117692   0.32676074  -0.10163362   -2.1813382 
 1797000    11.122126    1.4785743    9.6435518  -0.28823917   0.98593509    1.2591765   0.80444215   -3.5502959            3    5.7019892    7.8935643    8.0270265    1.1853769 -0.012362621  -0.16288696   0.10676668    5.5255053    5.5181314    1.0414072        0.075    2.0628761          0.5   0.11571192    4.3210762      2.81246    30.801768  0.023235483  -0.38502713 0.0096366553   0.34495822    1.0114001    9.2899469 
 1798000    11.102543    1.4677718     9.634771  -0.28581345   0.97873184    1.2587551   0.79272253   -3.5502959            3    5.5063565    7.6965431    7.9241213   0.89840511 0.0093139598   0.19936212 -0.095194872    5.3324437    5.3225602    1.0089452        0.075    2.0704296          0.5   0.11210503    4.4601033    2.8104071    30.801768 0.0017234696  -0.40821328 -0.0079427844   0.44068509   0.15581452   0.28144478 
 1799000    11.135273    1.5116156    9.6236579  -0.30406578    1.0079675    1.2587335   0.84144142   -3.5502959            3     5.677729    7.7988425    8.0370922    1.1972522 -0.004615217  -0.13139842  0.019630319    5.4931279    5.4939358    1.0518094        0.075    2.0990728          0.5   0.11686771    4.2783418    2.8204261    30.801768 -0.015125732   -0.4095594 -0.014945705   0.41749995  -0.61443979    2.6896885 
 1800000    11.099176    1.4917117    9.6074641  -0.28903004   0.99469535    1.2574744   0.82016898   -3.5502959            3    5.3571232    7.6291832     7.727554   0.71463228 -0.017015947  -0.24105492 -0.082350977     5.177189    5.1735139    1.0047961        0.075    2.0998032          0.5   0.11164401    4.4785205    2.8103126    30.801768 -0.011122452  -0.33080873 -0.0056068023   0.36285808    1.3653851    -2.713478 
Loop time of 600.461 on 1 procs for 800000 steps with 4504 atoms

Performance: 575557.310 tau/day, 1332.309 timesteps/s
98.8% CPU use with 1 MPI tasks x 1 OpenMP threads

MPI task timing breakdown:
Section |  min time  |  avg time  |  max time  |%varavg| %total
---------------------------------------------------------------
Pair    | 77.554     | 77.554     | 77.554     |   0.0 | 12.92
Bond    | 136.58     | 136.58     | 136.58     |   0.0 | 22.75
Neigh   | 230.19     | 230.19     | 230.19     |   0.0 | 38.34
Comm    | 14.108     | 14.108     | 14.108     |   0.0 |  2.35
Output  | 1.3264     | 1.3264     | 1.3264     |   0.0 |  0.22
Modify  | 128.92     | 128.92     | 128.92     |   0.0 | 21.47
Other   |            | 11.79      |            |       |  1.96

Nlocal:    4504 ave 4504 max 4504 min
Histogram: 1 0 0 0 0 0 0 0 0 0
Nghost:    1405 ave 1405 max 1405 min
Histogram: 1 0 0 0 0 0 0 0 0 0
Neighs:    9612 ave 9612 max 9612 min
Histogram: 1 0 0 0 0 0 0 0 0 0

Total # of neighbors = 9612
Ave neighs/atom = 2.1341
Ave special neighs/atom = 6.98401
Neighbor list builds = 118727
Dangerous builds = 0
