9376
Atoms. Timestep: 4000000
1 30 3.55271e-15 11.2608
1 0.793701 29.2063 11.2608
1 0.835833 29.9554 10.4237
1 0.0672383 29.2006 10.4146
1 1.5874 3.55271e-15 11.2608
1 2.3811 29.2063 11.2608
1 2.41142 29.9412 10.4411
1 1.60951 29.2141 10.4582
1 3.1748 3.55271e-15 11.2608
1 3.9685 29.2063 11.2608
1 3.98099 29.9245 10.4328
1 3.2105 29.1716 10.46
1 4.7622 3.55271e-15 11.2608
1 5.5559 29.2063 11.2608
1 5.54293 29.93 10.4373
1 4.76464 29.1922 10.4629
1 6.3496 3.55271e-15 11.2608
1 7.1433 29.2063 11.2608
1 7.14356 29.9528 10.4542
1 6.36649 29.1857 10.483
1 7.93701 3.55271e-15 11.2608
1 8.73071 29.2063 11.2608
1 8.71925 29.9295 10.4446
1 7.93644 29.1563 10.4829
1 9.52441 3.55271e-15 11.2608
1 10.3181 29.2063 11.2608
1 10.3156 29.9183 10.4236
1 9.51586 29.1517 10.4693
1 11.1118 3.55271e-15 11.2608
1 11.9055 29.2063 11.2608
1 11.9085 29.9161 10.4444
1 11.1298 29.2044 10.4614
1 12.6992 3.55271e-15 11.2608
1 13.4929 29.2063 11.2608
1 13.4778 29.9609 10.4277
1 12.7075 29.1897 10.4524
1 14.2866 3.55271e-15 11.2608
1 15.0803 29.2063 11.2608
1 15.0814 29.9126 10.4389
1 14.2754 29.2098 10.4773
1 15.874 3.55271e-15 11.2608
1 16.6677 29.2063 11.2608
1 16.7055 29.9179 10.4295
1 15.8886 29.1665 10.4434
1 17.4614 3.55271e-15 11.2608
1 18.2551 29.2063 11.2608
1 18.2391 29.903 10.4203
1 17.4602 29.1535 10.4734
1 19.0488 3.55271e-15 11.2608
1 19.8425 29.2063 11.2608
1 19.8327 29.9309 10.4314
1 19.0556 29.1514 10.4761
1 20.6362 3.55271e-15 11.2608
1 21.4299 29.2063 11.2608
1 21.4306 29.9354 10.4392
1 20.6248 29.171 10.4815
1 22.2236 3.55271e-15 11.2608
1 23.0173 29.2063 11.2608
1 23.0352 29.9404 10.4496
1 22.2452 29.1767 10.4538
1 23.811 3.55271e-15 11.2608
1 24.6047 29.2063 11.2608
1 24.5994 29.903 10.4448
1 23.826 29.1553 10.4615
1 25.3984 3.55271e-15 11.2608
1 26.1921 29.2063 11.2608
1 26.1727 29.9159 10.4364
1 25.3911 29.158 10.4377
1 26.9858 3.55271e-15 11.2608
1 27.7795 29.2063 11.2608
1 27.7204 29.9321 10.4308
1 26.9508 29.1757 10.46
1 28.5732 3.55271e-15 11.2608
1 29.3669 29.2063 11.2608
1 29.3104 29.9057 10.3675
1 28.5355 29.1668 10.4594
1 30 28.4126 11.2608
1 0.793701 27.6189 11.2608
1 0.830099 28.4191 10.4456
1 0.0658198 27.6093 10.416
1 1.5874 28.4126 11.2608
1 2.3811 27.6189 11.2608
1 2.40552 28.4182 10.4654
1 1.60462 27.6097 10.4641
1 3.1748 28.4126 11.2608
1 3.9685 27.6189 11.2608
1 3.99698 28.3895 10.4698
1 3.16145 27.6278 10.473
1 4.7622 28.4126 11.2608
1 5.5559 27.6189 11.2608
1 5.55165 28.3816 10.4946
1 4.77615 27.5941 10.4743
1 6.3496 28.4126 11.2608
1 7.1433 27.6189 11.2608
1 7.1272 28.3934 10.4775
1 6.3304 27.5991 10.4515
1 7.93701 28.4126 11.2608
1 8.73071 27.6189 11.2608
1 8.69934 28.3745 10.4604
1 7.90936 27.5905 10.4664
1 9.52441 28.4126 11.2608
1 10.3181 27.6189 11.2608
1 10.3187 28.4088 10.4679
1 9.52348 27.5944 10.4714
1 11.1118 28.4126 11.2608
1 11.9055 27.6189 11.2608
1 11.9155 28.3899 10.4467
1 11.1238 27.6122 10.4633
1 12.6992 28.4126 11.2608
1 13.4929 27.6189 11.2608
1 13.4726 28.397 10.471
1 12.6923 27.5784 10.4679
1 14.2866 28.4126 11.2608
1 15.0803 27.6189 11.2608
1 15.0699 28.414 10.4641
1 14.2912 27.6017 10.4599
1 15.874 28.4126 11.2608
1 16.6677 27.6189 11.2608
1 16.6597 28.3894 10.4758
1 15.8665 27.5969 10.4467
1 17.4614 28.4126 11.2608
1 18.2551 27.6189 11.2608
1 18.2448 28.3896 10.4598
1 17.47 27.6115 10.4724
1 19.0488 28.4126 11.2608
1 19.8425 27.6189 11.2608
1 19.8425 28.3766 10.4528
1 19.0405 27.5827 10.459
1 20.6362 28.4126 11.2608
1 21.4299 27.6189 11.2608
1 21.4098 28.3951 10.4579
1 20.6391 27.5801 10.4595
1 22.2236 28.4126 11.2608
1 23.0173 27.6189 11.2608
1 23.0284 28.3946 10.4805
1 22.2056 27.5959 10.4506
1 23.811 28.4126 11.2608
1 24.6047 27.6189 11.2608
1 24.6162 28.3956 10.4667
1 23.8207 27.6173 10.4811
1 25.3984 28.4126 11.2608
1 26.1921 27.6189 11.2608
1 26.1701 28.3967 10.47
1 25.3992 27.5927 10.4567
1 26.9858 28.4126 11.2608
1 27.7795 27.6189 11.2608
1 27.7805 28.3975 10.4656
1 26.9831 27.63 10.4666
1 28.5732 28.4126 11.2608
1 29.3669 27.6189 11.2608
1 29.3047 28.4036 10.428
1 28.564 27.6243 10.4503
1 30 26.8252 11.2608
1 0.793701 26.0315 11.2608
1 0.849427 26.8261 10.4668
1 0.0580091 26.0384 10.4369
1 1.5874 26.8252 11.2608
1 2.3811 26.0315 11.2608
1 2.38185 26.834 10.4678
1 1.60223 26.039 10.4398
1 3.1748 26.8252 11.2608
1 3.9685 26.0315 11.2608
1 3.96369 26.8434 10.4505
1 3.18087 26.0592 10.4531
1 4.7622 26.8252 11.2608
1 5.5559 26.0315 11.2608
1 5.55299 26.7902 10.4677
1 4.75314 26.02 10.4541
1 6.3496 26.8252 11.2608
1 7.1433 26.0315 11.2608
1 7.11917 26.8188 10.4594
1 6.33847 26.0401 10.4659
1 7.93701 26.8252 11.2608
1 8.73071 26.0315 11.2608
1 8.73477 26.8285 10.4697
1 7.93531 26.0521 10.4884
1 9.52441 26.8252 11.2608
1 10.3181 26.0315 11.2608
1 10.3062 26.8213 10.4855
1 9.50931 26.0152 10.4894
1 11.1118 26.8252 11.2608
1 11.9055 26.0315 11.2608
1 11.9078 26.8216 10.4805
1 11.099 26.0338 10.491
1 12.6992 26.8252 11.2608
1 13.4929 26.0315 11.2608
1 13.487 26.8104 10.4852
1 12.6627 26.0031 10.4397
1 14.2866 26.8252 11.2608
1 15.0803 26.0315 11.2608
1 15.0895 26.8037 10.474
1 14.2703 26.0241 10.4668
1 15.874 26.8252 11.2608
1 16.6677 26.0315 11.2608
1 16.6777 26.8165 10.4338
1 15.8806 26.03 10.4533
1 17.4614 26.8252 11.2608
1 18.2551 26.0315 11.2608
1 18.2556 26.8121 10.4802
1 17.4539 26.0042 10.4713
1 19.0488 26.8252 11.2608
1 19.8425 26.0315 11.2608
1 19.8213 26.8058 10.4563
1 19.0571 25.9992 10.4594
1 20.6362 26.8252 11.2608
1 21.4299 26.0315 11.2608
1 21.4305 26.813 10.4668
1 20.6407 26.0233 10.4825
1 22.2236 26.8252 11.2608
1 23.0173 26.0315 11.2608
1 23.0075 26.8233 10.4541
1 22.2256 26.0278 10.4834
1 23.811 26.8252 11.2608
1 24.6047 26.0315 11.2608
1 24.5896 26.8177 10.4736
1 23.7901 26.03 10.4522
1 25.3984 26.8252 11.2608
1 26.1921 26.0315 11.2608
1 26.189 26.8205 10.4561
1 25.3821 26.0339 10.451
1 26.9858 26.8252 11.2608
1 27.7795 26.0315 11.2608
1 27.7923 26.8086 10.4657
1 26.9787 26.0254 10.4746
1 28.5732 26.8252 11.2608
1 29.3669 26.0315 11.2608
1 29.3087 26.807 10.4385
1 28.545 26.0298 10.454
1 30 25.2378 11.2608
1 0.793701 24.4441 11.2608
1 0.83618 25.2249 10.461
1 0.0893052 24.4076 10.472
1 1.5874 25.2378 11.2608
1 2.3811 24.4441 11.2608
1 2.36445 25.2481 10.4659
1 1.62184 24.4258 10.4475
1 3.1748 25.2378 11.2608
1 3.9685 24.4441 11.2608
1 3.9479 25.2325 10.4706
1 3.18124 24.4422 10.4679
1 4.7622 25.2378 11.2608
1 5.5559 24.4441 11.2608
1 5.53917 25.2544 10.4835
1 4.73995 24.4411 10.479
1 6.3496 25.2378 11.2608
1 7.1433 24.4441 11.2608
1 7.15347 25.2475 10.4691
1 6.35177 24.4613 10.464
1 7.93701 25.2378 11.2608
1 8.73071 24.4441 11.2608
1 8.71325 25.2224 10.4495
1 7.94053 24.4466 10.4528
1 9.52441 25.2378 11.2608
1 10.3181 24.4441 11.2608
1 10.3011 25.2413 10.4805
1 9.51961 24.4413 10.4595
1 11.1118 25.2378 11.2608
1 11.9055 24.4441 11.2608
1 11.8958 25.2225 10.4771
1 11.0834 24.4215 10.4754
1 12.6992 25.2378 11.2608
1 13.4929 24.4441 11.2608
1 13.4718 25.2531 10.4705
1 12.7068 24.4363 10.4419
1 14.2866 25.2378 11.2608
1 15.0803 24.4441 11.2608
1 15.0892 25.2322 10.4705
1 14.2806 24.4337 10.4455
1 15.874 25.2378 11.2608
1 16.6677 24.4441 11.2608
1 16.6623 25.2266 10.4537
1 15.8883 24.4431 10.4592
1 17.4614 25.2378 11.2608
1 18.2551 24.4441 11.2608
1 18.2287 25.2292 10.4515
1 17.4545 24.4278 10.4659
1 19.0488 25.2378 11.2608
1 19.8425 24.4441 11.2608
1 19.8516 25.2208 10.469
1 19.0619 24.4255 10.4769
1 20.6362 25.2378 11.2608
1 21.4299 24.4441 11.2608
1 21.4187 25.2416 10.4664
1 20.6456 24.4436 10.4869
1 22.2236 25.2378 11.2608
1 23.0173 24.4441 11.2608
1 23.0254 25.2276 10.4911
1 22.2265 24.4441 10.4674
1 23.811 25.2378 11.2608
1 24.6047 24.4441 11.2608
1 24.5873 25.2284 10.4655
1 23.8017 24.424 10.457
1 25.3984 25.2378 11.2608
1 26.1921 24.4441 11.2608
1 26.1925 25.2305 10.4904
1 25.3916 24.4183 10.4686
1 26.9858 25.2378 11.2608
1 27.7795 24.4441 11.2608
1 27.7729 25.2481 10.4717
1 26.9645 24.4594 10.4749
1 28.5732 25.2378 11.2608
1 29.3669 24.4441 11.2608
1 29.3011 25.2151 10.4389
1 28.5187 24.4424 10.4546
1 30 23.6504 11.2608
1 0.793701 22.8567 11.2608
1 0.850904 23.6542 10.4722
1 0.052207 22.8448 10.4352
1 1.5874 23.6504 11.2608
1 2.3811 22.8567 11.2608
1 2.40173 23.6457 10.4683
1 1.60288 22.856 10.4541
1 3.1748 23.6504 11.2608
1 3.9685 22.8567 11.2608
1 3.97587 23.6463 10.4827
1 3.1913 22.8552 10.4944
1 4.7622 23.6504 11.2608
1 5.5559 22.8567 11.2608
1 5.53522 23.6618 10.4431
1 4.75799 22.8743 10.475
1 6.3496 23.6504 11.2608
1 7.1433 22.8567 11.2608
1 7.15491 23.6696 10.4567
1 6.32896 22.8329 10.4852
1 7.93701 23.6504 11.2608
1 8.73071 22.8567 11.2608
1 8.71664 23.6472 10.4537
1 7.92072 22.858 10.4791
1 9.52441 23.6504 11.2608
1 10.3181 22.8567 11.2608
1 10.3065 23.634 10.4466
1 9.52146 22.842 10.4668
1 11.1118 23.6504 11.2608
1 11.9055 22.8567 11.2608
1 11.8908 23.6593 10.4709
1 11.1045 22.8546 10.478
1 12.6992 23.6504 11.2608
1 13.4929 22.8567 11.2608
1 13.4889 23.6425 10.4574
1 12.6754 22.8875 10.4625
1 14.2866 23.6504 11.2608
1 15.0803 22.8567 11.2608
1 15.0827 23.6547 10.4611
1 14.3156 22.8521 10.4699
1 15.874 23.6504 11.2608
1 16.6677 22.8567 11.2608
1 16.6508 23.6516 10.467
1 15.8882 22.8423 10.4784
1 17.4614 23.6504 11.2608
1 18.2551 22.8567 11.2608
1 18.2482 23.652 10.4648
1 17.4613 22.8692 10.4733
1 19.0488 23.6504 11.2608
1 19.8425 22.8567 11.2608
1 19.8703 23.6298 10.4815
1 19.0342 22.8586 10.474
1 20.6362 23.6504 11.2608
1 21.4299 22.8567 11.2608
1 21.4201 23.6393 10.4667
1 20.6545 22.8599 10.4776
1 22.2236 23.6504 11.2608
1 23.0173 22.8567 11.2608
1 23.0063 23.6368 10.45
1 22.2021 22.8698 10.4711
1 23.811 23.6504 11.2608
1 24.6047 22.8567 11.2608
1 24.6028 23.6638 10.4741
1 23.7916 22.8384 10.4704
1 25.3984 23.6504 11.2608
1 26.1921 22.8567 11.2608
1 26.1791 23.635 10.4631
1 25.3911 22.8409 10.4749
1 26.9858 23.6504 11.2608
1 27.7795 22.8567 11.2608
1 27.7595 23.6755 10.4546
1 26.9705 22.832 10.4776
1 28.5732 23.6504 11.2608
1 29.3669 22.8567 11.2608
1 29.309 23.6398 10.4505
1 28.534 22.8544 10.4607
1 30 22.063 11.2608
1 0.793701 21.2693 11.2608
1 0.81133 22.0725 10.4927
1 0.0405185 21.2682 10.4455
1 1.5874 22.063 11.2608
1 2.3811 21.2693 11.2608
1 2.37193 22.0651 10.4758
1 1.60418 21.2917 10.4734
1 3.1748 22.063 11.2608
1 3.9685 21.2693 11.2608
1 3.98715 22.0781 10.4791
1 3.17782 21.2902 10.4695
1 4.7622 22.063 11.2608
1 5.5559 21.2693 11.2608
1 5.5502 22.0487 10.474
1 4.7438 21.2752 10.4439
1 6.3496 22.063 11.2608
1 7.1433 21.2693 11.2608
1 7.11343 22.0504 10.4616
1 6.34909 21.2492 10.4596
1 7.93701 22.063 11.2608
1 8.73071 21.2693 11.2608
1 8.71189 22.064 10.4619
1 7.92187 21.2435 10.4679
1 9.52441 22.063 11.2608
1 10.3181 21.2693 11.2608
1 10.3168 22.0486 10.4686
1 9.487 21.2566 10.4646
1 11.1118 22.063 11.2608
1 11.9055 21.2693 11.2608
1 11.8829 22.0662 10.4803
1 11.1099 21.2757 10.4694
1 12.6992 22.063 11.2608
1 13.4929 21.2693 11.2608
1 13.483 22.0608 10.457
1 12.6982 21.2594 10.4571
1 14.2866 22.063 11.2608
1 15.0803 21.2693 11.2608
1 15.0782 22.0535 10.4614
1 14.2739 21.2627 10.4971
1 15.874 22.063 11.2608
1 16.6677 21.2693 11.2608
1 16.6738 22.0339 10.4805
1 15.8741 21.27 10.4786
1 17.4614 22.063 11.2608
1 18.2551 21.2693 11.2608
1 18.2574 22.0646 10.4581
1 17.4439 21.2706 10.4527
1 19.0488 22.063 11.2608
1 19.8425 21.2693 11.2608
1 19.849 22.0551 10.4702
1 19.0443 21.2489 10.5109
1 20.6362 22.063 11.2608
1 21.4299 21.2693 11.2608
1 21.4246 22.0581 10.459
1 20.6539 21.2533 10.4938
1 22.2236 22.063 11.2608
1 23.0173 21.2693 11.2608
1 22.9852 22.0931 10.4754
1 22.1964 21.2512 10.474
1 23.811 22.063 11.2608
1 24.6047 21.2693 11.2608
1 24.5812 22.07 10.4682
1 23.8177 21.2834 10.4756
1 25.3984 22.063 11.2608
1 26.1921 21.2693 11.2608
1 26.185 22.0777 10.4645
1 25.3948 21.2834 10.4609
1 26.9858 22.063 11.2608
1 27.7795 21.2693 11.2608
1 27.7425 22.0583 10.4655
1 26.9758 21.2848 10.4723
1 28.5732 22.063 11.2608
1 29.3669 21.2693 11.2608
1 29.31 22.0653 10.4262
1 28.5639 21.2637 10.4328
1 30 20.4756 11.2608
1 0.793701 19.6819 11.2608
1 0.814719 20.4776 10.4561
1 0.0269473 19.6935 10.4343
1 1.5874 20.4756 11.2608
1 2.3811 19.6819 11.2608
1 2.40724 20.4879 10.4772
1 1.59823 19.6968 10.4523
1 3.1748 20.4756 11.2608
1 3.9685 19.6819 11.2608
1 3.96187 20.4833 10.4669
1 3.17308 19.694 10.4673
1 4.7622 20.4756 11.2608
1 5.5559 19.6819 11.2608
1 5.57543 20.465 10.4558
1 4.79445 19.6549 10.4581
1 6.3496 20.4756 11.2608
1 7.1433 19.6819 11.2608
1 7.13008 20.476 10.4721
1 6.34995 19.6801 10.4513
1 7.93701 20.4756 11.2608
1 8.73071 19.6819 11.2608
1 8.73272 20.4853 10.4629
1 7.95054 19.6927 10.4564
1 9.52441 20.4756 11.2608
1 10.3181 19.6819 11.2608
1 10.3196 20.4904 10.4689
1 9.54003 19.6699 10.4806
1 11.1118 20.4756 11.2608
1 11.9055 19.6819 11.2608
1 11.9017 20.4888 10.4784
1 11.1284 19.6937 10.4754
1 12.6992 20.4756 11.2608
1 13.4929 19.6819 11.2608
1 13.4601 20.4697 10.4756
1 12.6889 19.6785 10.4758
1 14.2866 20.4756 11.2608
1 15.0803 19.6819 11.2608
1 15.0856 20.4962 10.4768
1 14.2992 19.6885 10.4672
1 15.874 20.4756 11.2608
1 16.6677 19.6819 11.2608
1 16.6754 20.4919 10.4618
1 15.8822 19.6834 10.4635
1 17.4614 20.4756 11.2608
1 18.2551 19.6819 11.2608
1 18.2407 20.4659 10.4798
1 17.4674 19.6874 10.4594
1 19.0488 20.4756 11.2608
1 19.8425 19.6819 11.2608
1 19.8303 20.4705 10.4545
1 19.0361 19.6768 10.4606
1 20.6362 20.4756 11.2608
1 21.4299 19.6819 11.2608
1 21.4199 20.4755 10.4699
1 20.6132 19.687 10.4862
1 22.2236 20.4756 11.2608
1 23.0173 19.6819 11.2608
1 23.0226 20.4639 10.4817
1 22.2233 19.6859 10.4478
1 23.811 20.4756 11.2608
1 24.6047 19.6819 11.2608
1 24.5974 20.4966 10.4736
1 23.8115 19.6892 10.4883
1 25.3984 20.4756 11.2608
1 26.1921 19.6819 11.2608
1 26.1824 20.5207 10.4911
1 25.3601 19.7077 10.4875
1 26.9858 20.4756 11.2608
1 27.7795 19.6819 11.2608
1 27.7651 20.4696 10.4621
1 26.939 19.6876 10.4775
1 28.5732 20.4756 11.2608
1 29.3669 19.6819 11.2608
1 29.3196 20.4805 10.4196
1 28.5495 19.6979 10.449
1 30 18.8882 11.2608
1 0.793701 18.0945 11.2608
1 0.80421 18.8784 10.4607
1 0.0754135 18.0558 10.4573
1 1.5874 18.8882 11.2608
1 2.3811 18.0945 11.2608
1 2.39737 18.8899 10.4699
1 1.59417 18.1218 10.4548
1 3.1748 18.8882 11.2608
1 3.9685 18.0945 11.2608
1 3.98257 18.8762 10.4597
1 3.17028 18.1137 10.4471
1 4.7622 18.8882 11.2608
1 5.5559 18.0945 11.2608
1 5.57981 18.8806 10.4658
1 4.78463 18.1181 10.4662
1 6.3496 18.8882 11.2608
1 7.1433 18.0945 11.2608
1 7.1158 18.8742 10.4536
1 6.33526 18.0817 10.4808
1 7.93701 18.8882 11.2608
1 8.73071 18.0945 11.2608
1 8.71361 18.9192 10.466
1 7.94437 18.1178 10.4921
1 9.52441 18.8882 11.2608
1 10.3181 18.0945 11.2608
1 10.3155 18.8865 10.4737
1 9.51008 18.0997 10.4698
1 11.1118 18.8882 11.2608
1 11.9055 18.0945 11.2608
1 11.909 18.8953 10.4463
1 11.1102 18.0905 10.4825
1 12.6992 18.8882 11.2608
1 13.4929 18.0945 11.2608
1 13.4897 18.9019 10.4703
1 12.7228 18.1022 10.4903
1 14.2866 18.8882 11.2608
1 15.0803 18.0945 11.2608
1 15.0688 18.8904 10.4703
1 14.2825 18.083 10.4723
1 15.874 18.8882 11.2608
1 16.6677 18.0945 11.2608
1 16.6518 18.919 10.4695
1 15.906 18.0922 10.464
1 17.4614 18.8882 11.2608
1 18.2551 18.0945 11.2608
1 18.235 18.904 10.4397
1 17.4415 18.1286 10.4722
1 19.0488 18.8882 11.2608
1 19.8425 18.0945 11.2608
1 19.8305 18.8865 10.4733
1 19.0083 18.1132 10.4635
1 20.6362 18.8882 11.2608
1 21.4299 18.0945 11.2608
1 21.4348 18.8983 10.4858
1 20.6252 18.0797 10.4682
1 22.2236 18.8882 11.2608
1 23.0173 18.0945 11.2608
1 23.0146 18.8869 10.4762
1 22.2151 18.099 10.4713
1 23.811 18.8882 11.2608
1 24.6047 18.0945 11.2608
1 24.6092 18.8819 10.477
1 23.8304 18.0834 10.4786
1 25.3984 18.8882 11.2608
1 26.1921 18.0945 11.2608
1 26.169 18.8964 10.4692
1 25.3828 18.0756 10.4685
1 26.9858 18.8882 11.2608
1 27.7795 18.0945 11.2608
1 27.7523 18.9163 10.4413
1 26.9871 18.1037 10.471
1 28.5732 18.8882 11.2608
1 29.3669 18.0945 11.2608
1 29.3049 18.883 10.4502
1 28.5296 18.1171 10.4576
1 30 17.3008 11.2608
1 0.793701 16.5071 11.2608
1 0.831137 17.2812 10.4715
1 0.055297 16.4965 10.4331
1 1.5874 17.3008 11.2608
1 2.3811 16.5071 11.2608
1 2.38549 17.339 10.4884
1 1.59244 16.5121 10.4798
1 3.1748 17.3008 11.2608
1 3.9685 16.5071 11.2608
1 3.9744 17.3153 10.465
1 3.214 16.4799 10.4543
1 4.7622 17.3008 11.2608
1 5.5559 16.5071 11.2608
1 5.52412 17.3352 10.4529
1 4.75561 16.5056 10.4726
1 6.3496 17.3008 11.2608
1 7.1433 16.5071 11.2608
1 7.1279 17.3381 10.5068
1 6.33203 16.5256 10.4825
1 7.93701 17.3008 11.2608
1 8.73071 16.5071 11.2608
1 8.71246 17.3107 10.4624
1 7.89562 16.4891 10.4838
1 9.52441 17.3008 11.2608
1 10.3181 16.5071 11.2608
1 10.2828 17.3294 10.4759
1 9.51465 16.4978 10.4779
1 11.1118 17.3008 11.2608
1 11.9055 16.5071 11.2608
1 11.9012 17.3153 10.4767
1 11.0997 16.5473 10.4947
1 12.6992 17.3008 11.2608
1 13.4929 16.5071 11.2608
1 13.4863 17.3158 10.4494
1 12.6932 16.504 10.4692
1 14.2866 17.3008 11.2608
1 15.0803 16.5071 11.2608
1 15.0541 17.3012 10.4578
1 14.2873 16.5209 10.4621
1 15.874 17.3008 11.2608
1 16.6677 16.5071 11.2608
1 16.6792 17.3356 10.4674
1 15.8674 16.5151 10.4975
1 17.4614 17.3008 11.2608
1 18.2551 16.5071 11.2608
1 18.2376 17.3022 10.4799
1 17.459 16.4831 10.4492
1 19.0488 17.3008 11.2608
1 19.8425 16.5071 11.2608
1 19.8056 17.3081 10.4998
1 19.0589 16.4821 10.4577
1 20.6362 17.3008 11.2608
1 21.4299 16.5071 11.2608
1 21.4247 17.2837 10.4622
1 20.6374 16.4879 10.4715
1 22.2236 17.3008 11.2608
1 23.0173 16.5071 11.2608
1 23.0342 17.3038 10.4687
1 22.2444 16.504 10.4734
1 23.811 17.3008 11.2608
1 24.6047 16.5071 11.2608
1 24.5916 17.2984 10.4461
1 23.8129 16.4943 10.4702
1 25.3984 17.3008 11.2608
1 26.1921 16.5071 11.2608
1 26.1888 17.2983 10.4904
1 25.3619 16.4987 10.4612
1 26.9858 17.3008 11.2608
1 27.7795 16.5071 11.2608
1 27.7684 17.2772 10.4581
1 26.9762 16.5035 10.4923
1 28.5732 17.3008 11.2608
1 29.3669 16.5071 11.2608
1 29.3158 17.2679 10.4444
1 28.5408 16.5194 10.4742
1 30 15.7134 11.2608
1 0.793701 14.9197 11.2608
1 0.825141 15.7216 10.451
1 0.0787977 14.9156 10.4389
1 1.5874 15.7134 11.2608
1 2.3811 14.9197 11.2608
1 2.3908 15.7442 10.4638
1 1.61005 14.9175 10.4757
1 3.1748 15.7134 11.2608
1 3.9685 14.9197 11.2608
1 3.97849 15.7141 10.4781
1 3.18246 14.9558 10.4835
1 4.7622 15.7134 11.2608
1 5.5559 14.9197 11.2608
1 5.54767 15.7044 10.4834
1 4.7909 14.9228 10.4915
1 6.3496 15.7134 11.2608
1 7.1433 14.9197 11.2608
1 7.13506 15.7127 10.4629
1 6.34534 14.9191 10.4696
1 7.93701 15.7134 11.2608
1 8.73071 14.9197 11.2608
1 8.71592 15.7048 10.4351
1 7.92862 14.9081 10.4608
1 9.52441 15.7134 11.2608
1 10.3181 14.9197 11.2608
1 10.3266 15.7277 10.4455
1 9.53301 14.901 10.4912
1 11.1118 15.7134 11.2608
1 11.9055 14.9197 11.2608
1 11.898 15.7097 10.4756
1 11.0952 14.9324 10.4808
1 12.6992 15.7134 11.2608
1 13.4929 14.9197 11.2608
1 13.495 15.7348 10.4634
1 12.696 14.9303 10.4911
1 14.2866 15.7134 11.2608
1 15.0803 14.9197 11.2608
1 15.066 15.7206 10.4975
1 14.274 14.9145 10.4777
1 15.874 15.7134 11.2608
1 16.6677 14.9197 11.2608
1 16.6869 15.702 10.4843
1 15.8834 14.9516 10.4646
1 17.4614 15.7134 11.2608
1 18.2551 14.9197 11.2608
1 18.2577 15.7051 10.4667
1 17.4991 14.9101 10.4743
1 19.0488 15.7134 11.2608
1 19.8425 14.9197 11.2608
1 19.8606 15.7089 10.4587
1 19.0334 14.9065 10.4759
1 20.6362 15.7134 11.2608
1 21.4299 14.9197 11.2608
1 21.4384 15.7192 10.4471
1 20.6297 14.8974 10.445
1 22.2236 15.7134 11.2608
1 23.0173 14.9197 11.2608
1 22.9875 15.7013 10.471
1 22.2021 14.9359 10.4642
1 23.811 15.7134 11.2608
1 24.6047 14.9197 11.2608
1 24.6041 15.723 10.5128
1 23.788 14.9149 10.4813
1 25.3984 15.7134 11.2608
1 26.1921 14.9197 11.2608
1 26.1664 15.7077 10.4632
1 25.3968 14.9203 10.488
1 26.9858 15.7134 11.2608
1 27.7795 14.9197 11.2608
1 27.7567 15.6978 10.4966
1 26.9615 14.9077 10.471
1 28.5732 15.7134 11.2608
1 29.3669 14.9197 11.2608
1 29.3086 15.6882 10.4451
1 28.5671 14.9137 10.484
1 30 14.126 11.2608
1 0.793701 13.3323 11.2608
1 0.830613 14.117 10.4647
1 0.0311093 13.3224 10.4075
1 1.5874 14.126 11.2608
1 2.3811 13.3323 11.2608
1 2.3865 14.1246 10.4491
1 1.59756 13.34 10.4622
1 3.1748 14.126 11.2608
1 3.9685 13.3323 11.2608
1 3.98803 14.1256 10.4677
1 3.19457 13.3273 10.4708
1 4.7622 14.126 11.2608
1 5.5559 13.3323 11.2608
1 5.55854 14.1152 10.461
1 4.78575 13.3627 10.486
1 6.3496 14.126 11.2608
1 7.1433 13.3323 11.2608
1 7.12905 14.1072 10.4612
1 6.34941 13.3478 10.4885
1 7.93701 14.126 11.2608
1 8.73071 13.3323 11.2608
1 8.75445 14.1291 10.4769
1 7.90576 13.3401 10.4588
1 9.52441 14.126 11.2608
1 10.3181 13.3323 11.2608
1 10.349 14.1306 10.4781
1 9.51087 13.3358 10.4601
1 11.1118 14.126 11.2608
1 11.9055 13.3323 11.2608
1 11.924 14.1253 10.502
1 11.114 13.3289 10.4866
1 12.6992 14.126 11.2608
1 13.4929 13.3323 11.2608
1 13.5081 14.1329 10.4739
1 12.7163 13.3611 10.435
1 14.2866 14.126 11.2608
1 15.0803 13.3323 11.2608
1 15.0732 14.1528 10.4403
1 14.2983 13.3264 10.4492
1 15.874 14.126 11.2608
1 16.6677 13.3323 11.2608
1 16.657 14.1252 10.4802
1 15.8796 13.3355 10.4797
1 17.4614 14.126 11.2608
1 18.2551 13.3323 11.2608
1 18.2554 14.0903 10.4961
1 17.4528 13.33 10.491
1 19.0488 14.126 11.2608
1 19.8425 13.3323 11.2608
1 19.8572 14.1412 10.4848
1 19.082 13.3468 10.4678
1 20.6362 14.126 11.2608
1 21.4299 13.3323 11.2608
1 21.4247 14.1453 10.4627
1 20.6143 13.3223 10.4579
1 22.2236 14.126 11.2608
1 23.0173 13.3323 11.2608
1 23.0059 14.1199 10.4861
1 22.2252 13.3419 10.4734
1 23.811 14.126 11.2608
1 24.6047 13.3323 11.2608
1 24.5988 14.1143 10.4617
1 23.7986 13.3364 10.4894
1 25.3984 14.126 11.2608
1 26.1921 13.3323 11.2608
1 26.1937 14.1069 10.4687
1 25.3835 13.3295 10.4689
1 26.9858 14.126 11.2608
1 27.7795 13.3323 11.2608
1 27.7681 14.1073 10.4694
1 26.9894 13.3248 10.473
1 28.5732 14.126 11.2608
1 29.3669 13.3323 11.2608
1 29.3164 14.1224 10.4539
1 28.5574 13.3041 10.4414
1 30 12.5386 11.2608
1 0.793701 11.7449 11.2608
1 0.836269 12.5499 10.4585
1 0.118138 11.7587 10.4335
1 1.5874 12.5386 11.2608
1 2.3811 11.7449 11.2608
1 2.3892 12.5342 10.4686
1 1.58383 11.7352 10.4937
1 3.1748 12.5386 11.2608
1 3.9685 11.7449 11.2608
1 3.97973 12.5339 10.4957
1 3.18068 11.7411 10.4673
1 4.7622 12.5386 11.2608
1 5.5559 11.7449 11.2608
1 5.55758 12.5437 10.4695
1 4.79787 11.7447 10.4904
1 6.3496 12.5386 11.2608
1 7.1433 11.7449 11.2608
1 7.11949 12.5479 10.4627
1 6.37245 11.7534 10.4796
1 7.93701 12.5386 11.2608
1 8.73071 11.7449 11.2608
1 8.71157 12.5419 10.466
1 7.94672 11.7451 10.4656
1 9.52441 12.5386 11.2608
1 10.3181 11.7449 11.2608
1 10.2951 12.5515 10.4704
1 9.52478 11.746 10.4937
1 11.1118 12.5386 11.2608
1 11.9055 11.7449 11.2608
1 11.9186 12.5263 10.4622
1 11.0867 11.7682 10.4645
1 12.6992 12.5386 11.2608
1 13.4929 11.7449 11.2608
1 13.4889 12.5327 10.4705
1 12.6871 11.7322 10.4731
1 14.2866 12.5386 11.2608
1 15.0803 11.7449 11.2608
1 15.0899 12.5346 10.4617
1 14.2682 11.7424 10.4477
1 15.874 12.5386 11.2608
1 16.6677 11.7449 11.2608
1 16.6947 12.5506 10.4583
1 15.8907 11.7241 10.4569
1 17.4614 12.5386 11.2608
1 18.2551 11.7449 11.2608
1 18.2557 12.5392 10.4705
1 17.4567 11.7209 10.4597
1 19.0488 12.5386 11.2608
1 19.8425 11.7449 11.2608
1 19.8492 12.5387 10.4355
1 19.0502 11.7598 10.48
1 20.6362 12.5386 11.2608
1 21.4299 11.7449 11.2608
1 21.4403 12.5483 10.4548
1 20.6277 11.7406 10.4664
1 22.2236 12.5386 11.2608
1 23.0173 11.7449 11.2608
1 23.0084 12.5405 10.475
1 22.2336 11.7276 10.4851
1 23.811 12.5386 11.2608
1 24.6047 11.7449 11.2608
1 24.587 12.5415 10.4769
1 23.8121 11.7406 10.4658
1 25.3984 12.5386 11.2608
1 26.1921 11.7449 11.2608
1 26.1883 12.5415 10.4704
1 25.4077 11.7436 10.4771
1 26.9858 12.5386 11.2608
1 27.7795 11.7449 11.2608
1 27.7455 12.542 10.4836
1 26.9785 11.724 10.4538
1 28.5732 12.5386 11.2608
1 29.3669 11.7449 11.2608
1 29.3071 12.4948 10.4381
1 28.5381 11.7544 10.4595
1 30 10.9512 11.2608
1 0.793701 10.1575 11.2608
1 0.829999 10.9455 10.4865
1 0.0843508 10.1358 10.4208
1 1.5874 10.9512 11.2608
1 2.3811 10.1575 11.2608
1 2.3752 10.9516 10.4746
1 1.59877 10.1294 10.4618
1 3.1748 10.9512 11.2608
1 3.9685 10.1575 11.2608
1 4.01868 10.9529 10.4783
1 3.16773 10.1673 10.4716
1 4.7622 10.9512 11.2608
1 5.5559 10.1575 11.2608
1 5.55918 10.9449 10.5023
1 4.74584 10.158 10.4804
1 6.3496 10.9512 11.2608
1 7.1433 10.1575 11.2608
1 7.18011 10.9402 10.484
1 6.35602 10.1671 10.4811
1 7.93701 10.9512 11.2608
1 8.73071 10.1575 11.2608
1 8.72024 10.933 10.4586
1 7.94886 10.1543 10.4923
1 9.52441 10.9512 11.2608
1 10.3181 10.1575 11.2608
1 10.3194 10.9655 10.4913
1 9.51996 10.1491 10.4741
1 11.1118 10.9512 11.2608
1 11.9055 10.1575 11.2608
1 11.8897 10.965 10.4769
1 11.1113 10.1379 10.4756
1 12.6992 10.9512 11.2608
1 13.4929 10.1575 11.2608
1 13.496 10.9386 10.4648
1 12.6878 10.1497 10.4522
1 14.2866 10.9512 11.2608
1 15.0803 10.1575 11.2608
1 15.0927 10.9537 10.4502
1 14.3214 10.1686 10.4857
1 15.874 10.9512 11.2608
1 16.6677 10.1575 11.2608
1 16.663 10.9279 10.4905
1 15.8525 10.1558 10.4662
1 17.4614 10.9512 11.2608
1 18.2551 10.1575 11.2608
1 18.2751 10.9338 10.4727
1 17.4833 10.1334 10.4734
1 19.0488 10.9512 11.2608
1 19.8425 10.1575 11.2608
1 19.8568 10.9497 10.4815
1 19.0365 10.151 10.4807
1 20.6362 10.9512 11.2608
1 21.4299 10.1575 11.2608
1 21.4494 10.9616 10.4488
1 20.636 10.1735 10.4874
1 22.2236 10.9512 11.2608
1 23.0173 10.1575 11.2608
1 23.0221 10.9302 10.4656
1 22.2104 10.1447 10.4661
1 23.811 10.9512 11.2608
1 24.6047 10.1575 11.2608
1 24.6232 10.9533 10.4693
1 23.8122 10.1701 10.4831
1 25.3984 10.9512 11.2608
1 26.1921 10.1575 11.2608
1 26.1664 10.9526 10.4784
1 25.3659 10.1596 10.4691
1 26.9858 10.9512 11.2608
1 27.7795 10.1575 11.2608
1 27.7501 10.934 10.4781
1 26.9459 10.1275 10.474
1 28.5732 10.9512 11.2608
1 29.3669 10.1575 11.2608
1 29.3272 10.9583 10.4298
1 28.5442 10.1596 10.4656
1 30 9.36379 11.2608
1 0.793701 8.57009 11.2608
1 0.82403 9.3483 10.4347
1 0.0684608 8.55734 10.4459
1 1.5874 9.36379 11.2608
1 2.3811 8.57009 11.2608
1 2.38301 9.37921 10.4689
1 1.61189 8.56796 10.4606
1 3.1748 9.36379 11.2608
1 3.9685 8.57009 11.2608
1 3.95822 9.36439 10.4818
1 3.17701 8.59012 10.4859
1 4.7622 9.36379 11.2608
1 5.5559 8.57009 11.2608
1 5.55165 9.38947 10.4764
1 4.76336 8.56775 10.4681
1 6.3496 9.36379 11.2608
1 7.1433 8.57009 11.2608
1 7.12861 9.34413 10.4586
1 6.33317 8.58873 10.4498
1 7.93701 9.36379 11.2608
1 8.73071 8.57009 11.2608
1 8.74228 9.37688 10.4522
1 7.9205 8.5821 10.4783
1 9.52441 9.36379 11.2608
1 10.3181 8.57009 11.2608
1 10.3193 9.35967 10.4793
1 9.5324 8.57526 10.4706
1 11.1118 9.36379 11.2608
1 11.9055 8.57009 11.2608
1 11.9125 9.35834 10.4718
1 11.1191 8.55453 10.4729
1 12.6992 9.36379 11.2608
1 13.4929 8.57009 11.2608
1 13.4799 9.36738 10.4624
1 12.6762 8.55682 10.4569
1 14.2866 9.36379 11.2608
1 15.0803 8.57009 11.2608
1 15.0941 9.36236 10.4716
1 14.2708 8.57201 10.4821
1 15.874 9.36379 11.2608
1 16.6677 8.57009 11.2608
1 16.653 9.33944 10.4679
1 15.8576 8.55044 10.5053
1 17.4614 9.36379 11.2608
1 18.2551 8.57009 11.2608
1 18.2629 9.34833 10.4544
1 17.4711 8.55234 10.4841
1 19.0488 9.36379 11.2608
1 19.8425 8.57009 11.2608
1 19.8422 9.35659 10.4818
1 19.0614 8.5702 10.442
1 20.6362 9.36379 11.2608
1 21.4299 8.57009 11.2608
1 21.4447 9.35779 10.4708
1 20.641 8.58312 10.4381
1 22.2236 9.36379 11.2608
1 23.0173 8.57009 11.2608
1 23.0122 9.37291 10.4704
1 22.2387 8.58493 10.4574
1 23.811 9.36379 11.2608
1 24.6047 8.57009 11.2608
1 24.5877 9.37148 10.4652
1 23.7803 8.58975 10.4721
1 25.3984 9.36379 11.2608
1 26.1921 8.57009 11.2608
1 26.1664 9.35959 10.47
1 25.3684 8.58371 10.4815
1 26.9858 9.36379 11.2608
1 27.7795 8.57009 11.2608
1 27.7621 9.36582 10.4739
1 26.9793 8.60877 10.469
1 28.5732 9.36379 11.2608
1 29.3669 8.57009 11.2608
1 29.2891 9.37315 10.4529
1 28.5309 8.55104 10.4446
1 30 7.77639 11.2608
1 0.793701 6.98268 11.2608
1 0.818666 7.77946 10.4678
1 0.0921191 6.97837 10.4598
1 1.5874 7.77639 11.2608
1 2.3811 6.98268 11.2608
1 2.41854 7.79623 10.4603
1 1.62215 6.98021 10.4412
1 3.1748 7.77639 11.2608
1 3.9685 6.98268 11.2608
1 3.97134 7.7991 10.47
1 3.19555 6.9707 10.447
1 4.7622 7.77639 11.2608
1 5.5559 6.98268 11.2608
1 5.53242 7.76402 10.4803
1 4.75233 6.96842 10.4413
1 6.3496 7.77639 11.2608
1 7.1433 6.98268 11.2608
1 7.12487 7.75922 10.4619
1 6.35096 6.98101 10.4778
1 7.93701 7.77639 11.2608
1 8.73071 6.98268 11.2608
1 8.72571 7.79113 10.4867
1 7.97004 6.96996 10.4631
1 9.52441 7.77639 11.2608
1 10.3181 6.98268 11.2608
1 10.2979 7.77929 10.4661
1 9.50127 6.97587 10.4679
1 11.1118 7.77639 11.2608
1 11.9055 6.98268 11.2608
1 11.9001 7.78986 10.4748
1 11.0968 6.99808 10.491
1 12.6992 7.77639 11.2608
1 13.4929 6.98268 11.2608
1 13.5126 7.78838 10.4423
1 12.7028 7.01939 10.4668
1 14.2866 7.77639 11.2608
1 15.0803 6.98268 11.2608
1 15.0564 7.78211 10.4498
1 14.265 6.97392 10.4665
1 15.874 7.77639 11.2608
1 16.6677 6.98268 11.2608
1 16.6382 7.77725 10.4997
1 15.8552 6.97814 10.4526
1 17.4614 7.77639 11.2608
1 18.2551 6.98268 11.2608
1 18.2674 7.75801 10.4527
1 17.4658 7.00555 10.4679
1 19.0488 7.77639 11.2608
1 19.8425 6.98268 11.2608
1 19.8733 7.7928 10.454
1 19.0489 6.99216 10.4633
1 20.6362 7.77639 11.2608
1 21.4299 6.98268 11.2608
1 21.4498 7.77515 10.4673
1 20.641 7.01672 10.4792
1 22.2236 7.77639 11.2608
1 23.0173 6.98268 11.2608
1 22.9982 7.79503 10.4592
1 22.2145 7.01009 10.4415
1 23.811 7.77639 11.2608
1 24.6047 6.98268 11.2608
1 24.586 7.78108 10.4748
1 23.7947 6.95948 10.4607
1 25.3984 7.77639 11.2608
1 26.1921 6.98268 11.2608
1 26.1553 7.75025 10.4502
1 25.3917 6.9773 10.4661
1 26.9858 7.77639 11.2608
1 27.7795 6.98268 11.2608
1 27.7554 7.78799 10.4591
1 26.9716 6.96766 10.4638
1 28.5732 7.77639 11.2608
1 29.3669 6.98268 11.2608
1 29.3029 7.76717 10.4592
1 28.5427 6.97294 10.461
1 30 6.18898 11.2608
1 0.793701 5.39528 11.2608
1 0.849006 6.1688 10.441
1 0.0625998 5.38384 10.4161
1 1.5874 6.18898 11.2608
1 2.3811 5.39528 11.2608
1 2.4007 6.16643 10.4463
1 1.60143 5.37149 10.4573
1 3.1748 6.18898 11.2608
1 3.9685 5.39528 11.2608
1 4.00098 6.18765 10.4519
1 3.191 5.38871 10.4826
1 4.7622 6.18898 11.2608
1 5.5559 5.39528 11.2608
1 5.5381 6.19731 10.4741
1 4.77789 5.38521 10.4663
1 6.3496 6.18898 11.2608
1 7.1433 5.39528 11.2608
1 7.16332 6.19397 10.4676
1 6.35059 5.38584 10.4806
1 7.93701 6.18898 11.2608
1 8.73071 5.39528 11.2608
1 8.7407 6.16233 10.4488
1 7.91937 5.40113 10.4941
1 9.52441 6.18898 11.2608
1 10.3181 5.39528 11.2608