9376
Atoms. Timestep: 4000000
1 30 3.55271e-15 12.6203
1 0.793701 29.2063 12.6203
1 0.79841 29.9125 11.7772
1 0.109966 29.1583 11.8049
1 1.5874 3.55271e-15 12.6203
1 2.3811 29.2063 12.6203
1 2.38072 29.924 11.8015
1 1.60597 29.1867 11.83
1 3.1748 3.55271e-15 12.6203
1 3.9685 29.2063 12.6203
1 3.95892 29.9247 11.7886
1 3.18307 29.1899 11.805
1 4.7622 3.55271e-15 12.6203
1 5.5559 29.2063 12.6203
1 5.5669 29.9232 11.7962
1 4.76181 29.1736 11.8286
1 6.3496 3.55271e-15 12.6203
1 7.1433 29.2063 12.6203
1 7.17043 29.9061 11.7591
1 6.31517 29.1661 11.8158
1 7.93701 3.55271e-15 12.6203
1 8.73071 29.2063 12.6203
1 8.71507 29.92 11.8043
1 7.91621 29.1907 11.8245
1 9.52441 3.55271e-15 12.6203
1 10.3181 29.2063 12.6203
1 10.3133 29.9444 11.7899
1 9.52702 29.1797 11.8081
1 11.1118 3.55271e-15 12.6203
1 11.9055 29.2063 12.6203
1 11.8892 29.9376 11.7854
1 11.1347 29.1984 11.8116
1 12.6992 3.55271e-15 12.6203
1 13.4929 29.2063 12.6203
1 13.4535 29.9456 11.7965
1 12.6868 29.1399 11.85
1 14.2866 3.55271e-15 12.6203
1 15.0803 29.2063 12.6203
1 15.0729 29.9448 11.7895
1 14.2468 29.1995 11.8228
1 15.874 3.55271e-15 12.6203
1 16.6677 29.2063 12.6203
1 16.6331 29.9298 11.7972
1 15.8812 29.1824 11.8329
1 17.4614 3.55271e-15 12.6203
1 18.2551 29.2063 12.6203
1 18.2211 29.9453 11.7993
1 17.4394 29.1817 11.8307
1 19.0488 3.55271e-15 12.6203
1 19.8425 29.2063 12.6203
1 19.8555 29.914 11.8083
1 19.0234 29.1703 11.8302
1 20.6362 3.55271e-15 12.6203
1 21.4299 29.2063 12.6203
1 21.416 29.9394 11.7921
1 20.6649 29.1621 11.8151
1 22.2236 3.55271e-15 12.6203
1 23.0173 29.2063 12.6203
1 23.0133 29.942 11.7869
1 22.2343 29.1808 11.8228
1 23.811 3.55271e-15 12.6203
1 24.6047 29.2063 12.6203
1 24.5851 29.9325 11.7887
1 23.8075 29.1831 11.8149
1 25.3984 3.55271e-15 12.6203
1 26.1921 29.2063 12.6203
1 26.1691 29.925 11.7922
1 25.3734 29.197 11.7973
1 26.9858 3.55271e-15 12.6203
1 27.7795 29.2063 12.6203
1 27.7392 29.9132 11.8058
1 26.9611 29.1966 11.7951
1 28.5732 3.55271e-15 12.6203
1 29.3669 29.2063 12.6203
1 29.3174 29.9255 11.7627
1 28.528 29.1558 11.8189
1 30 28.4126 12.6203
1 0.793701 27.6189 12.6203
1 0.841224 28.3956 11.839
1 0.0619407 27.6306 11.8051
1 1.5874 28.4126 12.6203
1 2.3811 27.6189 12.6203
1 2.40008 28.3911 11.8202
1 1.58771 27.588 11.8104
1 3.1748 28.4126 12.6203
1 3.9685 27.6189 12.6203
1 3.97821 28.407 11.8343
1 3.18279 27.6025 11.8255
1 4.7622 28.4126 12.6203
1 5.5559 27.6189 12.6203
1 5.55798 28.3833 11.8169
1 4.76192 27.625 11.8432
1 6.3496 28.4126 12.6203
1 7.1433 27.6189 12.6203
1 7.1572 28.3863 11.8324
1 6.38114 27.6181 11.829
1 7.93701 28.4126 12.6203
1 8.73071 27.6189 12.6203
1 8.72559 28.4054 11.8253
1 7.96246 27.6149 11.817
1 9.52441 28.4126 12.6203
1 10.3181 27.6189 12.6203
1 10.3233 28.3789 11.8375
1 9.52627 27.6255 11.8604
1 11.1118 28.4126 12.6203
1 11.9055 27.6189 12.6203
1 11.9212 28.3939 11.8371
1 11.107 27.6101 11.8389
1 12.6992 28.4126 12.6203
1 13.4929 27.6189 12.6203
1 13.4991 28.3789 11.8278
1 12.6974 27.612 11.8279
1 14.2866 28.4126 12.6203
1 15.0803 27.6189 12.6203
1 15.0756 28.4069 11.8379
1 14.3109 27.6187 11.8385
1 15.874 28.4126 12.6203
1 16.6677 27.6189 12.6203
1 16.6757 28.4043 11.8005
1 15.8711 27.5683 11.8454
1 17.4614 28.4126 12.6203
1 18.2551 27.6189 12.6203
1 18.2448 28.3909 11.8272
1 17.4595 27.6116 11.8243
1 19.0488 28.4126 12.6203
1 19.8425 27.6189 12.6203
1 19.8413 28.3996 11.8348
1 19.0424 27.6143 11.8316
1 20.6362 28.4126 12.6203
1 21.4299 27.6189 12.6203
1 21.4494 28.3963 11.8397
1 20.6434 27.6027 11.8219
1 22.2236 28.4126 12.6203
1 23.0173 27.6189 12.6203
1 23.0484 28.4051 11.8382
1 22.2618 27.6226 11.8181
1 23.811 28.4126 12.6203
1 24.6047 27.6189 12.6203
1 24.6071 28.4018 11.8065
1 23.8121 27.5702 11.8648
1 25.3984 28.4126 12.6203
1 26.1921 27.6189 12.6203
1 26.1817 28.3607 11.8211
1 25.38 27.6132 11.8345
1 26.9858 28.4126 12.6203
1 27.7795 27.6189 12.6203
1 27.7666 28.4107 11.8243
1 27.0012 27.6117 11.8255
1 28.5732 28.4126 12.6203
1 29.3669 27.6189 12.6203
1 29.3102 28.3915 11.8135
1 28.5607 27.6045 11.8031
1 30 26.8252 12.6203
1 0.793701 26.0315 12.6203
1 0.829855 26.7821 11.8108
1 0.0694969 26.0308 11.802
1 1.5874 26.8252 12.6203
1 2.3811 26.0315 12.6203
1 2.40951 26.8129 11.8284
1 1.60928 26.0386 11.8117
1 3.1748 26.8252 12.6203
1 3.9685 26.0315 12.6203
1 3.9809 26.8199 11.8158
1 3.18302 26.0281 11.8163
1 4.7622 26.8252 12.6203
1 5.5559 26.0315 12.6203
1 5.55334 26.8246 11.8397
1 4.74073 26.0345 11.8534
1 6.3496 26.8252 12.6203
1 7.1433 26.0315 12.6203
1 7.15654 26.8218 11.843
1 6.35088 26.0548 11.8557
1 7.93701 26.8252 12.6203
1 8.73071 26.0315 12.6203
1 8.75007 26.8239 11.8528
1 7.94202 26.009 11.8069
1 9.52441 26.8252 12.6203
1 10.3181 26.0315 12.6203
1 10.329 26.8263 11.8579
1 9.5062 26.0135 11.8039
1 11.1118 26.8252 12.6203
1 11.9055 26.0315 12.6203
1 11.9125 26.8321 11.8231
1 11.1055 26.0479 11.8534
1 12.6992 26.8252 12.6203
1 13.4929 26.0315 12.6203
1 13.5019 26.8218 11.843
1 12.7081 26.0464 11.8267
1 14.2866 26.8252 12.6203
1 15.0803 26.0315 12.6203
1 15.0641 26.8096 11.8221
1 14.2951 26.0259 11.8211
1 15.874 26.8252 12.6203
1 16.6677 26.0315 12.6203
1 16.6743 26.8142 11.81
1 15.8605 26.0167 11.8577
1 17.4614 26.8252 12.6203
1 18.2551 26.0315 12.6203
1 18.2675 26.832 11.8564
1 17.4856 26.0411 11.8315
1 19.0488 26.8252 12.6203
1 19.8425 26.0315 12.6203
1 19.8565 26.8117 11.8126
1 19.0356 26.0222 11.8216
1 20.6362 26.8252 12.6203
1 21.4299 26.0315 12.6203
1 21.4504 26.8346 11.8379
1 20.6601 26.0208 11.8345
1 22.2236 26.8252 12.6203
1 23.0173 26.0315 12.6203
1 23.0121 26.8538 11.8323
1 22.2254 26.0134 11.7957
1 23.811 26.8252 12.6203
1 24.6047 26.0315 12.6203
1 24.6077 26.798 11.8457
1 23.8029 26.0495 11.8446
1 25.3984 26.8252 12.6203
1 26.1921 26.0315 12.6203
1 26.1695 26.81 11.8444
1 25.3893 26.0056 11.8391
1 26.9858 26.8252 12.6203
1 27.7795 26.0315 12.6203
1 27.7729 26.8095 11.8357
1 26.9964 26.0174 11.8195
1 28.5732 26.8252 12.6203
1 29.3669 26.0315 12.6203
1 29.2691 26.7998 11.8005
1 28.5478 26.012 11.8619
1 30 25.2378 12.6203
1 0.793701 24.4441 12.6203
1 0.839023 25.2322 11.8233
1 0.0689363 24.4539 11.7686
1 1.5874 25.2378 12.6203
1 2.3811 24.4441 12.6203
1 2.39068 25.2354 11.8267
1 1.59769 24.4122 11.7863
1 3.1748 25.2378 12.6203
1 3.9685 24.4441 12.6203
1 3.95814 25.2404 11.8235
1 3.20028 24.4516 11.82
1 4.7622 25.2378 12.6203
1 5.5559 24.4441 12.6203
1 5.55304 25.2226 11.8393
1 4.7731 24.4086 11.8044
1 6.3496 25.2378 12.6203
1 7.1433 24.4441 12.6203
1 7.15472 25.2389 11.8436
1 6.35051 24.4433 11.8523
1 7.93701 25.2378 12.6203
1 8.73071 24.4441 12.6203
1 8.74788 25.2323 11.8386
1 7.9559 24.4428 11.8296
1 9.52441 25.2378 12.6203
1 10.3181 24.4441 12.6203
1 10.2823 25.2437 11.8342
1 9.53388 24.4437 11.8053
1 11.1118 25.2378 12.6203
1 11.9055 24.4441 12.6203
1 11.9142 25.2601 11.8441
1 11.1037 24.4558 11.8426
1 12.6992 25.2378 12.6203
1 13.4929 24.4441 12.6203
1 13.4843 25.245 11.8489
1 12.6948 24.4318 11.8262
1 14.2866 25.2378 12.6203
1 15.0803 24.4441 12.6203
1 15.0875 25.234 11.8405
1 14.3002 24.4354 11.8273
1 15.874 25.2378 12.6203
1 16.6677 24.4441 12.6203
1 16.6797 25.2421 11.8316
1 15.8811 24.4349 11.8415
1 17.4614 25.2378 12.6203
1 18.2551 24.4441 12.6203
1 18.2606 25.2282 11.8474
1 17.4611 24.4031 11.8298
1 19.0488 25.2378 12.6203
1 19.8425 24.4441 12.6203
1 19.8397 25.2418 11.8395
1 19.0474 24.4277 11.8319
1 20.6362 25.2378 12.6203
1 21.4299 24.4441 12.6203
1 21.4534 25.2435 11.8107
1 20.6662 24.45 11.8246
1 22.2236 25.2378 12.6203
1 23.0173 24.4441 12.6203
1 22.994 25.2462 11.8511
1 22.2201 24.4428 11.8144
1 23.811 25.2378 12.6203
1 24.6047 24.4441 12.6203
1 24.541 25.243 11.8315
1 23.7987 24.4321 11.8251
1 25.3984 25.2378 12.6203
1 26.1921 24.4441 12.6203
1 26.1934 25.2038 11.8373
1 25.3659 24.4244 11.8312
1 26.9858 25.2378 12.6203
1 27.7795 24.4441 12.6203
1 27.7726 25.2306 11.8252
1 26.9829 24.41 11.8428
1 28.5732 25.2378 12.6203
1 29.3669 24.4441 12.6203
1 29.3317 25.2502 11.7697
1 28.5326 24.4447 11.8084
1 30 23.6504 12.6203
1 0.793701 22.8567 12.6203
1 0.837948 23.6572 11.8261
1 0.0498775 22.8565 11.7889
1 1.5874 23.6504 12.6203
1 2.3811 22.8567 12.6203
1 2.36932 23.6474 11.8507
1 1.59965 22.8375 11.8309
1 3.1748 23.6504 12.6203
1 3.9685 22.8567 12.6203
1 3.95818 23.6461 11.8269
1 3.19525 22.865 11.8517
1 4.7622 23.6504 12.6203
1 5.5559 22.8567 12.6203
1 5.55901 23.6364 11.8589
1 4.75352 22.8602 11.8508
1 6.3496 23.6504 12.6203
1 7.1433 22.8567 12.6203
1 7.1497 23.6626 11.8341
1 6.34948 22.8514 11.8327
1 7.93701 23.6504 12.6203
1 8.73071 22.8567 12.6203
1 8.7319 23.6607 11.8149
1 7.95043 22.8617 11.8184
1 9.52441 23.6504 12.6203
1 10.3181 22.8567 12.6203
1 10.2929 23.6407 11.7971
1 9.53975 22.8698 11.8088
1 11.1118 23.6504 12.6203
1 11.9055 22.8567 12.6203
1 11.889 23.6367 11.8326
1 11.0956 22.8489 11.8214
1 12.6992 23.6504 12.6203
1 13.4929 22.8567 12.6203
1 13.4957 23.6434 11.8466
1 12.6822 22.8659 11.834
1 14.2866 23.6504 12.6203
1 15.0803 22.8567 12.6203
1 15.0953 23.6568 11.8482
1 14.293 22.8597 11.8253
1 15.874 23.6504 12.6203
1 16.6677 22.8567 12.6203
1 16.684 23.6419 11.8074
1 15.8774 22.8598 11.8385
1 17.4614 23.6504 12.6203
1 18.2551 22.8567 12.6203
1 18.2468 23.6336 11.8229
1 17.4677 22.8483 11.8238
1 19.0488 23.6504 12.6203
1 19.8425 22.8567 12.6203
1 19.8375 23.6544 11.8423
1 19.0365 22.8396 11.8283
1 20.6362 23.6504 12.6203
1 21.4299 22.8567 12.6203
1 21.4322 23.6353 11.813
1 20.6428 22.8437 11.8092
1 22.2236 23.6504 12.6203
1 23.0173 22.8567 12.6203
1 22.9984 23.6371 11.806
1 22.2249 22.8433 11.8451
1 23.811 23.6504 12.6203
1 24.6047 22.8567 12.6203
1 24.593 23.6191 11.8304
1 23.8065 22.8165 11.8518
1 25.3984 23.6504 12.6203
1 26.1921 22.8567 12.6203
1 26.1763 23.6412 11.8408
1 25.392 22.8342 11.8339
1 26.9858 23.6504 12.6203
1 27.7795 22.8567 12.6203
1 27.7976 23.6529 11.8232
1 26.981 22.8613 11.821
1 28.5732 23.6504 12.6203
1 29.3669 22.8567 12.6203
1 29.2969 23.6639 11.7792
1 28.5282 22.8648 11.8272
1 30 22.063 12.6203
1 0.793701 21.2693 12.6203
1 0.827975 22.0623 11.8127
1 0.052823 21.2575 11.7784
1 1.5874 22.063 12.6203
1 2.3811 21.2693 12.6203
1 2.3971 22.0691 11.8382
1 1.60569 21.2647 11.8368
1 3.1748 22.063 12.6203
1 3.9685 21.2693 12.6203
1 3.95229 22.0429 11.822
1 3.16249 21.2598 11.8314
1 4.7622 22.063 12.6203
1 5.5559 21.2693 12.6203
1 5.56199 22.076 11.8258
1 4.77519 21.2783 11.8297
1 6.3496 22.063 12.6203
1 7.1433 21.2693 12.6203
1 7.13638 22.0893 11.8398
1 6.35107 21.272 11.8113
1 7.93701 22.063 12.6203
1 8.73071 21.2693 12.6203
1 8.73303 22.0702 11.8337
1 7.94585 21.259 11.8293
1 9.52441 22.063 12.6203
1 10.3181 21.2693 12.6203
1 10.2839 22.0563 11.8179
1 9.54748 21.2573 11.8057
1 11.1118 22.063 12.6203
1 11.9055 21.2693 12.6203
1 11.9154 22.0599 11.8551
1 11.1335 21.2747 11.823
1 12.6992 22.063 12.6203
1 13.4929 21.2693 12.6203
1 13.4965 22.0427 11.8487
1 12.7166 21.242 11.8291
1 14.2866 22.063 12.6203
1 15.0803 21.2693 12.6203
1 15.0718 22.0842 11.8429
1 14.2784 21.2638 11.8341
1 15.874 22.063 12.6203
1 16.6677 21.2693 12.6203
1 16.6791 22.0917 11.8453
1 15.8545 21.2643 11.825
1 17.4614 22.063 12.6203
1 18.2551 21.2693 12.6203
1 18.2551 22.0693 11.8336
1 17.4583 21.2905 11.8298
1 19.0488 22.063 12.6203
1 19.8425 21.2693 12.6203
1 19.8562 22.0557 11.8168
1 19.0285 21.2942 11.8199
1 20.6362 22.063 12.6203
1 21.4299 21.2693 12.6203
1 21.4475 22.0623 11.8333
1 20.66 21.2702 11.8021
1 22.2236 22.063 12.6203
1 23.0173 21.2693 12.6203
1 22.9982 22.0385 11.8244
1 22.2053 21.241 11.8143
1 23.811 22.063 12.6203
1 24.6047 21.2693 12.6203
1 24.5996 22.0693 11.8389
1 23.8017 21.2427 11.8176
1 25.3984 22.063 12.6203
1 26.1921 21.2693 12.6203
1 26.1894 22.0739 11.8073
1 25.4092 21.2508 11.8238
1 26.9858 22.063 12.6203
1 27.7795 21.2693 12.6203
1 27.7851 22.0602 11.8115
1 26.9777 21.2808 11.8204
1 28.5732 22.063 12.6203
1 29.3669 21.2693 12.6203
1 29.3013 22.0454 11.7997
1 28.5382 21.2677 11.8068
1 30 20.4756 12.6203
1 0.793701 19.6819 12.6203
1 0.803303 20.4909 11.7979
1 0.0832849 19.6787 11.7708
1 1.5874 20.4756 12.6203
1 2.3811 19.6819 12.6203
1 2.34634 20.4635 11.8142
1 1.58837 19.7067 11.7964
1 3.1748 20.4756 12.6203
1 3.9685 19.6819 12.6203
1 3.95819 20.491 11.8479
1 3.1828 19.6747 11.8328
1 4.7622 20.4756 12.6203
1 5.5559 19.6819 12.6203
1 5.56552 20.4616 11.8341
1 4.77523 19.7078 11.84
1 6.3496 20.4756 12.6203
1 7.1433 19.6819 12.6203
1 7.14061 20.4483 11.8135
1 6.34559 19.6561 11.8287
1 7.93701 20.4756 12.6203
1 8.73071 19.6819 12.6203
1 8.73484 20.465 11.8502
1 7.94371 19.6644 11.838
1 9.52441 20.4756 12.6203
1 10.3181 19.6819 12.6203
1 10.3394 20.4854 11.8238
1 9.55162 19.6875 11.8364
1 11.1118 20.4756 12.6203
1 11.9055 19.6819 12.6203
1 11.9097 20.4776 11.8255
1 11.109 19.6793 11.8373
1 12.6992 20.4756 12.6203
1 13.4929 19.6819 12.6203
1 13.4932 20.4505 11.8209
1 12.6674 19.6658 11.8266
1 14.2866 20.4756 12.6203
1 15.0803 19.6819 12.6203
1 15.0572 20.471 11.847
1 14.3067 19.6762 11.8227
1 15.874 20.4756 12.6203
1 16.6677 19.6819 12.6203
1 16.7026 20.4836 11.8444
1 15.854 19.6958 11.836
1 17.4614 20.4756 12.6203
1 18.2551 19.6819 12.6203
1 18.2773 20.5044 11.8113
1 17.4679 19.6873 11.8251
1 19.0488 20.4756 12.6203
1 19.8425 19.6819 12.6203
1 19.8262 20.4642 11.7986
1 19.0265 19.6821 11.8217
1 20.6362 20.4756 12.6203
1 21.4299 19.6819 12.6203
1 21.4196 20.4608 11.8135
1 20.6275 19.6562 11.8128
1 22.2236 20.4756 12.6203
1 23.0173 19.6819 12.6203
1 23.0111 20.4715 11.8372
1 22.2035 19.6928 11.799
1 23.811 20.4756 12.6203
1 24.6047 19.6819 12.6203
1 24.5951 20.4761 11.7973
1 23.8045 19.6965 11.8424
1 25.3984 20.4756 12.6203
1 26.1921 19.6819 12.6203
1 26.1837 20.4664 11.8246
1 25.416 19.7067 11.8218
1 26.9858 20.4756 12.6203
1 27.7795 19.6819 12.6203
1 27.7525 20.4724 11.8185
1 26.9791 19.6804 11.846
1 28.5732 20.4756 12.6203
1 29.3669 19.6819 12.6203
1 29.3095 20.4749 11.7806
1 28.5642 19.6979 11.8259
1 30 18.8882 12.6203
1 0.793701 18.0945 12.6203
1 0.809305 18.8886 11.804
1 0.0857596 18.0949 11.795
1 1.5874 18.8882 12.6203
1 2.3811 18.0945 12.6203
1 2.38138 18.8904 11.8357
1 1.59272 18.1186 11.8122
1 3.1748 18.8882 12.6203
1 3.9685 18.0945 12.6203
1 3.99035 18.8854 11.8207
1 3.17262 18.0906 11.8075
1 4.7622 18.8882 12.6203
1 5.5559 18.0945 12.6203
1 5.521 18.8802 11.8217
1 4.74789 18.0976 11.8297
1 6.3496 18.8882 12.6203
1 7.1433 18.0945 12.6203
1 7.15401 18.8898 11.8062
1 6.34264 18.1182 11.8454
1 7.93701 18.8882 12.6203
1 8.73071 18.0945 12.6203
1 8.72292 18.8754 11.8272
1 7.95501 18.1084 11.824
1 9.52441 18.8882 12.6203
1 10.3181 18.0945 12.6203
1 10.293 18.8959 11.8166
1 9.51726 18.1083 11.8252
1 11.1118 18.8882 12.6203
1 11.9055 18.0945 12.6203
1 11.9016 18.8784 11.8181
1 11.1122 18.1143 11.8169
1 12.6992 18.8882 12.6203
1 13.4929 18.0945 12.6203
1 13.4785 18.8982 11.829
1 12.6877 18.0751 11.8226
1 14.2866 18.8882 12.6203
1 15.0803 18.0945 12.6203
1 15.0949 18.8817 11.8304
1 14.2824 18.1151 11.821
1 15.874 18.8882 12.6203
1 16.6677 18.0945 12.6203
1 16.6654 18.8727 11.8461
1 15.8686 18.0838 11.8119
1 17.4614 18.8882 12.6203
1 18.2551 18.0945 12.6203
1 18.2687 18.8689 11.8099
1 17.4479 18.0944 11.8219
1 19.0488 18.8882 12.6203
1 19.8425 18.0945 12.6203
1 19.8317 18.8732 11.8097
1 19.0372 18.0676 11.822
1 20.6362 18.8882 12.6203
1 21.4299 18.0945 12.6203
1 21.4188 18.8771 11.8008
1 20.6386 18.0945 11.8051
1 22.2236 18.8882 12.6203
1 23.0173 18.0945 12.6203
1 22.988 18.9063 11.8474
1 22.21 18.1081 11.8213
1 23.811 18.8882 12.6203
1 24.6047 18.0945 12.6203
1 24.5914 18.9144 11.8381
1 23.8053 18.0997 11.821
1 25.3984 18.8882 12.6203
1 26.1921 18.0945 12.6203
1 26.1798 18.8846 11.8106
1 25.3739 18.1249 11.8058
1 26.9858 18.8882 12.6203
1 27.7795 18.0945 12.6203
1 27.7585 18.9017 11.8028
1 26.9625 18.0778 11.8145
1 28.5732 18.8882 12.6203
1 29.3669 18.0945 12.6203
1 29.3035 18.9243 11.7849
1 28.5523 18.1099 11.8203
1 30 17.3008 12.6203
1 0.793701 16.5071 12.6203
1 0.804513 17.2993 11.8219
1 0.098555 16.5066 11.7749
1 1.5874 17.3008 12.6203
1 2.3811 16.5071 12.6203
1 2.3781 17.2841 11.8236
1 1.58132 16.4999 11.8166
1 3.1748 17.3008 12.6203
1 3.9685 16.5071 12.6203
1 3.96697 17.3142 11.8391
1 3.17411 16.5053 11.8383
1 4.7622 17.3008 12.6203
1 5.5559 16.5071 12.6203
1 5.5766 17.3158 11.8164
1 4.74247 16.5211 11.8419
1 6.3496 17.3008 12.6203
1 7.1433 16.5071 12.6203
1 7.14192 17.3219 11.8438
1 6.3491 16.4882 11.8279
1 7.93701 17.3008 12.6203
1 8.73071 16.5071 12.6203
1 8.72578 17.3099 11.823
1 7.90815 16.5036 11.8498
1 9.52441 17.3008 12.6203
1 10.3181 16.5071 12.6203
1 10.3176 17.3259 11.8194
1 9.52925 16.5246 11.8577
1 11.1118 17.3008 12.6203
1 11.9055 16.5071 12.6203
1 11.8807 17.3042 11.8198
1 11.0893 16.5165 11.8487
1 12.6992 17.3008 12.6203
1 13.4929 16.5071 12.6203
1 13.4719 17.3015 11.8342
1 12.699 16.5182 11.8387
1 14.2866 17.3008 12.6203
1 15.0803 16.5071 12.6203
1 15.0641 17.303 11.7977
1 14.2682 16.5186 11.8423
1 15.874 17.3008 12.6203
1 16.6677 16.5071 12.6203
1 16.6694 17.2896 11.8268
1 15.8811 16.5153 11.8425
1 17.4614 17.3008 12.6203
1 18.2551 16.5071 12.6203
1 18.2558 17.3252 11.8665
1 17.473 16.487 11.8202
1 19.0488 17.3008 12.6203
1 19.8425 16.5071 12.6203
1 19.8513 17.3027 11.8094
1 19.0579 16.5068 11.8065
1 20.6362 17.3008 12.6203
1 21.4299 16.5071 12.6203
1 21.4408 17.2809 11.8285
1 20.6385 16.5167 11.8037
1 22.2236 17.3008 12.6203
1 23.0173 16.5071 12.6203
1 23.0161 17.2976 11.8331
1 22.2071 16.4827 11.8284
1 23.811 17.3008 12.6203
1 24.6047 16.5071 12.6203
1 24.6125 17.3194 11.8303
1 23.8143 16.5068 11.8307
1 25.3984 17.3008 12.6203
1 26.1921 16.5071 12.6203
1 26.177 17.2932 11.83
1 25.4012 16.5334 11.8328
1 26.9858 17.3008 12.6203
1 27.7795 16.5071 12.6203
1 27.7409 17.2936 11.8331
1 26.9726 16.487 11.8317
1 28.5732 17.3008 12.6203
1 29.3669 16.5071 12.6203
1 29.3095 17.2918 11.7803
1 28.5323 16.5293 11.8243
1 30 15.7134 12.6203
1 0.793701 14.9197 12.6203
1 0.81128 15.6808 11.8276
1 0.0717528 14.9031 11.7612
1 1.5874 15.7134 12.6203
1 2.3811 14.9197 12.6203
1 2.3901 15.6992 11.8079
1 1.61447 14.9157 11.8298
1 3.1748 15.7134 12.6203
1 3.9685 14.9197 12.6203
1 3.9522 15.7314 11.8496
1 3.17338 14.9408 11.8286
1 4.7622 15.7134 12.6203
1 5.5559 14.9197 12.6203
1 5.55491 15.7164 11.8438
1 4.79572 14.9311 11.8348
1 6.3496 15.7134 12.6203
1 7.1433 14.9197 12.6203
1 7.15462 15.6943 11.8144
1 6.37517 14.9265 11.831
1 7.93701 15.7134 12.6203
1 8.73071 14.9197 12.6203
1 8.73488 15.6977 11.8421
1 7.92493 14.9129 11.8372
1 9.52441 15.7134 12.6203
1 10.3181 14.9197 12.6203
1 10.304 15.7165 11.8024
1 9.54111 14.9199 11.8261
1 11.1118 15.7134 12.6203
1 11.9055 14.9197 12.6203
1 11.8777 15.7122 11.8443
1 11.1088 14.8942 11.8255
1 12.6992 15.7134 12.6203
1 13.4929 14.9197 12.6203
1 13.4684 15.7172 11.8329
1 12.6925 14.9085 11.8529
1 14.2866 15.7134 12.6203
1 15.0803 14.9197 12.6203
1 15.0539 15.7189 11.8509
1 14.2928 14.9138 11.836
1 15.874 15.7134 12.6203
1 16.6677 14.9197 12.6203
1 16.672 15.6992 11.8395
1 15.8714 14.922 11.819
1 17.4614 15.7134 12.6203
1 18.2551 14.9197 12.6203
1 18.2549 15.6978 11.8137
1 17.472 14.9017 11.8522
1 19.0488 15.7134 12.6203
1 19.8425 14.9197 12.6203
1 19.8456 15.7072 11.8267
1 19.0443 14.9412 11.8264
1 20.6362 15.7134 12.6203
1 21.4299 14.9197 12.6203
1 21.4503 15.7173 11.8176
1 20.6495 14.9162 11.8393
1 22.2236 15.7134 12.6203
1 23.0173 14.9197 12.6203
1 23.0105 15.7333 11.8142
1 22.2507 14.9069 11.8461
1 23.811 15.7134 12.6203
1 24.6047 14.9197 12.6203
1 24.6123 15.7304 11.8385
1 23.836 14.9417 11.8091
1 25.3984 15.7134 12.6203
1 26.1921 14.9197 12.6203
1 26.1682 15.7265 11.8147
1 25.405 14.9174 11.821
1 26.9858 15.7134 12.6203
1 27.7795 14.9197 12.6203
1 27.7598 15.7084 11.8276
1 26.9768 14.9278 11.8432
1 28.5732 15.7134 12.6203
1 29.3669 14.9197 12.6203
1 29.3128 15.7233 11.7873
1 28.5614 14.915 11.8267
1 30 14.126 12.6203
1 0.793701 13.3323 12.6203
1 0.824261 14.1303 11.7955
1 0.080696 13.3154 11.7889
1 1.5874 14.126 12.6203
1 2.3811 13.3323 12.6203
1 2.37606 14.1202 11.8115
1 1.59923 13.3113 11.8321
1 3.1748 14.126 12.6203
1 3.9685 13.3323 12.6203
1 3.97983 14.1282 11.8386
1 3.18912 13.3577 11.8473
1 4.7622 14.126 12.6203
1 5.5559 13.3323 12.6203
1 5.57534 14.1173 11.8097
1 4.76995 13.3565 11.8372
1 6.3496 14.126 12.6203
1 7.1433 13.3323 12.6203
1 7.13442 14.1276 11.8215
1 6.34659 13.3311 11.8194
1 7.93701 14.126 12.6203
1 8.73071 13.3323 12.6203
1 8.73986 14.1165 11.833
1 7.90775 13.3701 11.8169
1 9.52441 14.126 12.6203
1 10.3181 13.3323 12.6203
1 10.294 14.1097 11.8659
1 9.51824 13.3471 11.8247
1 11.1118 14.126 12.6203
1 11.9055 13.3323 12.6203
1 11.8788 14.1248 11.8253
1 11.0955 13.3392 11.8146
1 12.6992 14.126 12.6203
1 13.4929 13.3323 12.6203
1 13.4715 14.1091 11.826
1 12.6812 13.3167 11.8447
1 14.2866 14.126 12.6203
1 15.0803 13.3323 12.6203
1 15.0903 14.1271 11.8175
1 14.2674 13.3305 11.8195
1 15.874 14.126 12.6203
1 16.6677 13.3323 12.6203
1 16.6553 14.1523 11.818
1 15.8719 13.327 11.8236
1 17.4614 14.126 12.6203
1 18.2551 13.3323 12.6203
1 18.2708 14.1296 11.814
1 17.4664 13.3391 11.8485
1 19.0488 14.126 12.6203
1 19.8425 13.3323 12.6203
1 19.8356 14.1085 11.841
1 19.049 13.3221 11.8171
1 20.6362 14.126 12.6203
1 21.4299 13.3323 12.6203
1 21.4313 14.1026 11.8397
1 20.6394 13.3213 11.8488
1 22.2236 14.126 12.6203
1 23.0173 13.3323 12.6203
1 23.0229 14.1477 11.8228
1 22.2397 13.3348 11.8444
1 23.811 14.126 12.6203
1 24.6047 13.3323 12.6203
1 24.5935 14.151 11.8377
1 23.8151 13.3243 11.8243
1 25.3984 14.126 12.6203
1 26.1921 13.3323 12.6203
1 26.1765 14.1424 11.8382
1 25.3836 13.3521 11.8237
1 26.9858 14.126 12.6203
1 27.7795 13.3323 12.6203
1 27.7696 14.1196 11.8374
1 26.9721 13.3422 11.8227
1 28.5732 14.126 12.6203
1 29.3669 13.3323 12.6203
1 29.3318 14.1137 11.8032
1 28.5142 13.3463 11.834
1 30 12.5386 12.6203
1 0.793701 11.7449 12.6203
1 0.833754 12.5279 11.7926
1 0.0778798 11.7519 11.7883
1 1.5874 12.5386 12.6203
1 2.3811 11.7449 12.6203
1 2.40128 12.5434 11.806
1 1.61072 11.7705 11.8009
1 3.1748 12.5386 12.6203
1 3.9685 11.7449 12.6203
1 3.98313 12.5363 11.8367
1 3.19563 11.7682 11.8232
1 4.7622 12.5386 12.6203
1 5.5559 11.7449 12.6203
1 5.55464 12.5289 11.8103
1 4.75678 11.7502 11.8323
1 6.3496 12.5386 12.6203
1 7.1433 11.7449 12.6203
1 7.13755 12.5437 11.838
1 6.34557 11.7299 11.8449
1 7.93701 12.5386 12.6203
1 8.73071 11.7449 12.6203
1 8.70189 12.5529 11.8445
1 7.91333 11.7355 11.8545
1 9.52441 12.5386 12.6203
1 10.3181 11.7449 12.6203
1 10.3012 12.526 11.8307
1 9.52237 11.7407 11.8241
1 11.1118 12.5386 12.6203
1 11.9055 11.7449 12.6203
1 11.9222 12.5515 11.8215
1 11.1014 11.735 11.8464
1 12.6992 12.5386 12.6203
1 13.4929 11.7449 12.6203
1 13.4898 12.5294 11.8238
1 12.6787 11.7455 11.8281
1 14.2866 12.5386 12.6203
1 15.0803 11.7449 12.6203
1 15.0847 12.5149 11.8347
1 14.2932 11.7411 11.8207
1 15.874 12.5386 12.6203
1 16.6677 11.7449 12.6203
1 16.6863 12.542 11.8479
1 15.897 11.7515 11.8246
1 17.4614 12.5386 12.6203
1 18.2551 11.7449 12.6203
1 18.2426 12.5191 11.822
1 17.4545 11.7042 11.8355
1 19.0488 12.5386 12.6203
1 19.8425 11.7449 12.6203
1 19.8454 12.5268 11.8201
1 19.051 11.7247 11.8152
1 20.6362 12.5386 12.6203
1 21.4299 11.7449 12.6203
1 21.4386 12.5299 11.8186
1 20.6494 11.7328 11.8194
1 22.2236 12.5386 12.6203
1 23.0173 11.7449 12.6203
1 23.0303 12.5383 11.8235
1 22.2073 11.773 11.8218
1 23.811 12.5386 12.6203
1 24.6047 11.7449 12.6203
1 24.6012 12.5064 11.8386
1 23.7798 11.7201 11.8359
1 25.3984 12.5386 12.6203
1 26.1921 11.7449 12.6203
1 26.1934 12.55 11.8456
1 25.3909 11.7404 11.8312
1 26.9858 12.5386 12.6203
1 27.7795 11.7449 12.6203
1 27.7563 12.5391 11.804
1 26.9668 11.7325 11.8194
1 28.5732 12.5386 12.6203
1 29.3669 11.7449 12.6203
1 29.298 12.5383 11.7976
1 28.5212 11.7654 11.8074
1 30 10.9512 12.6203
1 0.793701 10.1575 12.6203
1 0.834714 10.9627 11.8284
1 0.0890329 10.1732 11.7792
1 1.5874 10.9512 12.6203
1 2.3811 10.1575 12.6203
1 2.42311 10.9572 11.8288
1 1.62976 10.1558 11.7937
1 3.1748 10.9512 12.6203
1 3.9685 10.1575 12.6203
1 3.98626 10.9289 11.8271
1 3.16314 10.1439 11.8321
1 4.7622 10.9512 12.6203
1 5.5559 10.1575 12.6203
1 5.53117 10.946 11.7971
1 4.76233 10.1606 11.8224
1 6.3496 10.9512 12.6203
1 7.1433 10.1575 12.6203
1 7.13886 10.9056 11.8226
1 6.32934 10.1292 11.8181
1 7.93701 10.9512 12.6203
1 8.73071 10.1575 12.6203
1 8.73399 10.9371 11.8205
1 7.92009 10.1478 11.8241
1 9.52441 10.9512 12.6203
1 10.3181 10.1575 12.6203
1 10.2935 10.9267 11.8488
1 9.50175 10.1575 11.8304
1 11.1118 10.9512 12.6203
1 11.9055 10.1575 12.6203
1 11.8997 10.9522 11.8351
1 11.1197 10.152 11.8466
1 12.6992 10.9512 12.6203
1 13.4929 10.1575 12.6203
1 13.4999 10.9696 11.8416
1 12.6797 10.1643 11.7994
1 14.2866 10.9512 12.6203
1 15.0803 10.1575 12.6203
1 15.097 10.9405 11.829
1 14.2951 10.1704 11.8362
1 15.874 10.9512 12.6203
1 16.6677 10.1575 12.6203
1 16.6538 10.9301 11.8201
1 15.8657 10.1242 11.8246
1 17.4614 10.9512 12.6203
1 18.2551 10.1575 12.6203
1 18.2621 10.9357 11.828
1 17.4797 10.1464 11.8118
1 19.0488 10.9512 12.6203
1 19.8425 10.1575 12.6203
1 19.8548 10.9535 11.8277
1 19.0504 10.1469 11.7993
1 20.6362 10.9512 12.6203
1 21.4299 10.1575 12.6203
1 21.425 10.9487 11.8383
1 20.6306 10.1339 11.8351
1 22.2236 10.9512 12.6203
1 23.0173 10.1575 12.6203
1 22.9956 10.9533 11.824
1 22.2054 10.1685 11.8125
1 23.811 10.9512 12.6203
1 24.6047 10.1575 12.6203
1 24.6101 10.958 11.8183
1 23.8217 10.1784 11.8402
1 25.3984 10.9512 12.6203
1 26.1921 10.1575 12.6203
1 26.1826 10.942 11.8353
1 25.3894 10.1422 11.8337
1 26.9858 10.9512 12.6203
1 27.7795 10.1575 12.6203
1 27.7449 10.9424 11.8079
1 26.9553 10.1734 11.8037
1 28.5732 10.9512 12.6203
1 29.3669 10.1575 12.6203
1 29.3045 10.956 11.7747
1 28.5406 10.1694 11.8171
1 30 9.36379 12.6203
1 0.793701 8.57009 12.6203
1 0.825466 9.36631 11.7983
1 0.0639955 8.56315 11.7834
1 1.5874 9.36379 12.6203
1 2.3811 8.57009 12.6203
1 2.39556 9.33965 11.8217
1 1.58185 8.54619 11.8133
1 3.1748 9.36379 12.6203
1 3.9685 8.57009 12.6203
1 3.98281 9.38608 11.8405
1 3.21868 8.57359 11.8166
1 4.7622 9.36379 12.6203
1 5.5559 8.57009 12.6203
1 5.55036 9.34631 11.7929
1 4.75726 8.56797 11.8159
1 6.3496 9.36379 12.6203
1 7.1433 8.57009 12.6203
1 7.14389 9.37176 11.7953
1 6.33916 8.5681 11.8066
1 7.93701 9.36379 12.6203
1 8.73071 8.57009 12.6203
1 8.72037 9.357 11.8513
1 7.93638 8.57423 11.8206
1 9.52441 9.36379 12.6203
1 10.3181 8.57009 12.6203
1 10.3096 9.35232 11.8318
1 9.52109 8.55536 11.8547
1 11.1118 9.36379 12.6203
1 11.9055 8.57009 12.6203
1 11.9275 9.36293 11.8258
1 11.1148 8.56854 11.8548
1 12.6992 9.36379 12.6203
1 13.4929 8.57009 12.6203
1 13.5118 9.3487 11.8596
1 12.6835 8.56006 11.8457
1 14.2866 9.36379 12.6203
1 15.0803 8.57009 12.6203
1 15.0785 9.36334 11.8276
1 14.3113 8.58818 11.7963
1 15.874 9.36379 12.6203
1 16.6677 8.57009 12.6203
1 16.6533 9.35353 11.8214
1 15.8887 8.58664 11.8275
1 17.4614 9.36379 12.6203
1 18.2551 8.57009 12.6203
1 18.2418 9.32543 11.8403
1 17.4627 8.55436 11.8284
1 19.0488 9.36379 12.6203
1 19.8425 8.57009 12.6203
1 19.8559 9.35279 11.832
1 19.0298 8.57968 11.8344
1 20.6362 9.36379 12.6203
1 21.4299 8.57009 12.6203
1 21.4374 9.37953 11.8278
1 20.6511 8.54664 11.822
1 22.2236 9.36379 12.6203
1 23.0173 8.57009 12.6203
1 23.0407 9.38664 11.8346
1 22.2154 8.59751 11.8085
1 23.811 9.36379 12.6203
1 24.6047 8.57009 12.6203
1 24.6114 9.37405 11.827
1 23.8118 8.59125 11.8412
1 25.3984 9.36379 12.6203
1 26.1921 8.57009 12.6203
1 26.2273 9.36178 11.8384
1 25.3995 8.56657 11.8273
1 26.9858 9.36379 12.6203
1 27.7795 8.57009 12.6203
1 27.7744 9.35501 11.8224
1 26.9955 8.55125 11.8431
1 28.5732 9.36379 12.6203
1 29.3669 8.57009 12.6203
1 29.308 9.3576 11.7948
1 28.5387 8.5725 11.8199
1 30 7.77639 12.6203
1 0.793701 6.98268 12.6203
1 0.820168 7.77617 11.7894
1 0.0119091 6.98074 11.7352
1 1.5874 7.77639 12.6203
1 2.3811 6.98268 12.6203
1 2.40072 7.77969 11.8195
1 1.60736 6.99168 11.826
1 3.1748 7.77639 12.6203
1 3.9685 6.98268 12.6203
1 3.98587 7.77733 11.8175
1 3.19423 6.98766 11.8333
1 4.7622 7.77639 12.6203
1 5.5559 6.98268 12.6203
1 5.58067 7.76125 11.805
1 4.78054 6.99962 11.8429
1 6.3496 7.77639 12.6203
1 7.1433 6.98268 12.6203
1 7.18031 7.75852 11.8421
1 6.3503 6.98704 11.8444
1 7.93701 7.77639 12.6203
1 8.73071 6.98268 12.6203
1 8.70133 7.74601 11.8273
1 7.91042 6.99004 11.7958
1 9.52441 7.77639 12.6203
1 10.3181 6.98268 12.6203
1 10.3146 7.76187 11.8256
1 9.50558 6.99596 11.836
1 11.1118 7.77639 12.6203
1 11.9055 6.98268 12.6203
1 11.9332 7.7875 11.8187
1 11.1324 6.975 11.8216
1 12.6992 7.77639 12.6203
1 13.4929 6.98268 12.6203
1 13.4855 7.80682 11.8479
1 12.695 6.99458 11.8382
1 14.2866 7.77639 12.6203
1 15.0803 6.98268 12.6203
1 15.1102 7.78824 11.8319
1 14.2957 6.98285 11.8379
1 15.874 7.77639 12.6203
1 16.6677 6.98268 12.6203
1 16.6743 7.77549 11.7976
1 15.8809 7.00172 11.8167
1 17.4614 7.77639 12.6203
1 18.2551 6.98268 12.6203
1 18.254 7.75598 11.8197
1 17.4538 6.95319 11.8363
1 19.0488 7.77639 12.6203
1 19.8425 6.98268 12.6203
1 19.8388 7.78118 11.83
1 19.0446 6.97348 11.8515
1 20.6362 7.77639 12.6203
1 21.4299 6.98268 12.6203
1 21.4416 7.79532 11.8233
1 20.6521 6.99911 11.8283
1 22.2236 7.77639 12.6203
1 23.0173 6.98268 12.6203
1 23.0167 7.79481 11.8265
1 22.2127 6.98592 11.8562
1 23.811 7.77639 12.6203
1 24.6047 6.98268 12.6203
1 24.618 7.77869 11.8602
1 23.8123 6.9961 11.8441
1 25.3984 7.77639 12.6203
1 26.1921 6.98268 12.6203
1 26.2062 7.76718 11.8337
1 25.4179 6.98222 11.8483
1 26.9858 7.77639 12.6203
1 27.7795 6.98268 12.6203
1 27.78 7.77006 11.8033
1 27.0188 6.96799 11.8229
1 28.5732 7.77639 12.6203
1 29.3669 6.98268 12.6203
1 29.2998 7.8004 11.7825
1 28.5515 6.97181 11.819
1 30 6.18898 12.6203
1 0.793701 5.39528 12.6203
1 0.841005 6.22631 11.7834
1 0.0655278 5.41674 11.7925
1 1.5874 6.18898 12.6203
1 2.3811 5.39528 12.6203
1 2.40101 6.17747 11.8366
1 1.6173 5.40848 11.8463
1 3.1748 6.18898 12.6203
1 3.9685 5.39528 12.6203
1 3.97758 6.19724 11.8443
1 3.18099 5.40469 11.8233
1 4.7622 6.18898 12.6203
1 5.5559 5.39528 12.6203
1 5.55912 6.16531 11.8187
1 4.75479 5.38163 11.8523
1 6.3496 6.18898 12.6203
1 7.1433 5.39528 12.6203
1 7.17317 6.18773 11.8444
1 6.34559 5.3986 11.8581
1 7.93701 6.18898 12.6203
1 8.73071 5.39528 12.6203
1 8.71184 6.16636 11.8358
1 7.93371 5.38491 11.8296
1 9.52441 6.18898 12.6203