12976
Atoms. Timestep: 700000
1 0 7.10543e-15 15.2798
1 0.793701 29.2063 15.2798
1 0.810945 29.9387 14.4339
1 0.0666429 29.1699 14.4331
1 1.5874 7.10543e-15 15.2798
1 2.3811 29.2063 15.2798
1 2.3748 29.9452 14.4422
1 1.58832 29.1801 14.4759
1 3.1748 7.10543e-15 15.2798
1 3.9685 29.2063 15.2798
1 3.95933 29.9462 14.4604
1 3.18143 29.1556 14.4432
1 4.7622 7.10543e-15 15.2798
1 5.5559 29.2063 15.2798
1 5.55216 29.8951 14.4496
1 4.74044 29.1911 14.4615
1 6.3496 7.10543e-15 15.2798
1 7.1433 29.2063 15.2798
1 7.16138 29.9374 14.4708
1 6.35688 29.183 14.4862
1 7.93701 7.10543e-15 15.2798
1 8.73071 29.2063 15.2798
1 8.73074 29.9386 14.4654
1 7.96287 29.1656 14.4779
1 9.52441 7.10543e-15 15.2798
1 10.3181 29.2063 15.2798
1 10.3178 29.8983 14.4272
1 9.52617 29.1674 14.4692
1 11.1118 7.10543e-15 15.2798
1 11.9055 29.2063 15.2798
1 11.8884 29.9474 14.4493
1 11.1187 29.163 14.4999
1 12.6992 7.10543e-15 15.2798
1 13.4929 29.2063 15.2798
1 13.4861 29.9415 14.449
1 12.6833 29.1654 14.4661
1 14.2866 7.10543e-15 15.2798
1 15.0803 29.2063 15.2798
1 15.0902 29.9445 14.4595
1 14.2795 29.1762 14.4895
1 15.874 7.10543e-15 15.2798
1 16.6677 29.2063 15.2798
1 16.6837 29.9091 14.45
1 15.8736 29.1862 14.488
1 17.4614 7.10543e-15 15.2798
1 18.2551 29.2063 15.2798
1 18.2619 29.9377 14.4602
1 17.4643 29.1892 14.4751
1 19.0488 7.10543e-15 15.2798
1 19.8425 29.2063 15.2798
1 19.854 29.9323 14.4466
1 19.0554 29.1632 14.4924
1 20.6362 7.10543e-15 15.2798
1 21.4299 29.2063 15.2798
1 21.4378 29.9471 14.4562
1 20.6202 29.173 14.4719
1 22.2236 7.10543e-15 15.2798
1 23.0173 29.2063 15.2798
1 23.0073 29.9494 14.44
1 22.1993 29.179 14.4945
1 23.811 7.10543e-15 15.2798
1 24.6047 29.2063 15.2798
1 24.6136 29.9558 14.4556
1 23.8201 29.1687 14.4753
1 25.3984 7.10543e-15 15.2798
1 26.1921 29.2063 15.2798
1 26.1768 29.9524 14.4562
1 25.4144 29.1632 14.4679
1 26.9858 7.10543e-15 15.2798
1 27.7795 29.2063 15.2798
1 27.7915 29.9317 14.4435
1 26.9633 29.193 14.4549
1 28.5732 7.10543e-15 15.2798
1 29.3669 29.2063 15.2798
1 29.3099 29.9377 14.431
1 28.5398 29.1698 14.4543
1 0 28.4126 15.2798
1 0.793701 27.6189 15.2798
1 0.852078 28.3892 14.4611
1 0.0759864 27.5968 14.4486
1 1.5874 28.4126 15.2798
1 2.3811 27.6189 15.2798
1 2.3708 28.4154 14.4633
1 1.60051 27.6072 14.4652
1 3.1748 28.4126 15.2798
1 3.9685 27.6189 15.2798
1 3.99097 28.4048 14.4872
1 3.17913 27.6177 14.5061
1 4.7622 28.4126 15.2798
1 5.5559 27.6189 15.2798
1 5.56453 28.4171 14.4976
1 4.77609 27.6151 14.4793
1 6.3496 28.4126 15.2798
1 7.1433 27.6189 15.2798
1 7.18482 28.388 14.5116
1 6.33105 27.6055 14.5013
1 7.93701 28.4126 15.2798
1 8.73071 27.6189 15.2798
1 8.72317 28.3929 14.4993
1 7.92604 27.5943 14.5024
1 9.52441 28.4126 15.2798
1 10.3181 27.6189 15.2798
1 10.3275 28.402 14.4728
1 9.52072 27.5987 14.4841
1 11.1118 28.4126 15.2798
1 11.9055 27.6189 15.2798
1 11.9085 28.4052 14.4735
1 11.13 27.6296 14.4992
1 12.6992 28.4126 15.2798
1 13.4929 27.6189 15.2798
1 13.5067 28.3963 14.4852
1 12.6909 27.6072 14.504
1 14.2866 28.4126 15.2798
1 15.0803 27.6189 15.2798
1 15.0687 28.4207 14.4762
1 14.2681 27.6186 14.5206
1 15.874 28.4126 15.2798
1 16.6677 27.6189 15.2798
1 16.6799 28.4038 14.5009
1 15.8696 27.601 14.4917
1 17.4614 28.4126 15.2798
1 18.2551 27.6189 15.2798
1 18.2475 28.4153 14.4672
1 17.463 27.5783 14.4789
1 19.0488 28.4126 15.2798
1 19.8425 27.6189 15.2798
1 19.8696 28.4032 14.4984
1 19.0495 27.6298 14.4801
1 20.6362 28.4126 15.2798
1 21.4299 27.6189 15.2798
1 21.417 28.4257 14.4786
1 20.6678 27.6049 14.4669
1 22.2236 28.4126 15.2798
1 23.0173 27.6189 15.2798
1 23.0451 28.3896 14.4688
1 22.2241 27.6234 14.4622
1 23.811 28.4126 15.2798
1 24.6047 27.6189 15.2798
1 24.6051 28.3996 14.4726
1 23.8155 27.6082 14.4681
1 25.3984 28.4126 15.2798
1 26.1921 27.6189 15.2798
1 26.2109 28.4147 14.4652
1 25.3671 27.6115 14.4956
1 26.9858 28.4126 15.2798
1 27.7795 27.6189 15.2798
1 27.7625 28.4015 14.4675
1 26.9548 27.6173 14.4832
1 28.5732 28.4126 15.2798
1 29.3669 27.6189 15.2798
1 29.2956 28.3828 14.4551
1 28.5545 27.6006 14.4844
1 0 26.8252 15.2798
1 0.793701 26.0315 15.2798
1 0.805875 26.8127 14.4738
1 0.0491628 26.0159 14.4464
1 1.5874 26.8252 15.2798
1 2.3811 26.0315 15.2798
1 2.41063 26.8248 14.4769
1 1.60429 26.0299 14.4837
1 3.1748 26.8252 15.2798
1 3.9685 26.0315 15.2798
1 3.97449 26.8265 14.489
1 3.17317 26.0371 14.4979
1 4.7622 26.8252 15.2798
1 5.5559 26.0315 15.2798
1 5.56812 26.8121 14.4653
1 4.79322 26.0323 14.4928
1 6.3496 26.8252 15.2798
1 7.1433 26.0315 15.2798
1 7.143 26.828 14.5011
1 6.37795 26.0375 14.481
1 7.93701 26.8252 15.2798
1 8.73071 26.0315 15.2798
1 8.72328 26.8273 14.4946
1 7.94673 26.0341 14.4966
1 9.52441 26.8252 15.2798
1 10.3181 26.0315 15.2798
1 10.3226 26.8188 14.4776
1 9.51535 26.0438 14.4852
1 11.1118 26.8252 15.2798
1 11.9055 26.0315 15.2798
1 11.9223 26.8127 14.4769
1 11.1094 26.0313 14.5004
1 12.6992 26.8252 15.2798
1 13.4929 26.0315 15.2798
1 13.5052 26.8403 14.4633
1 12.7248 25.9968 14.4771
1 14.2866 26.8252 15.2798
1 15.0803 26.0315 15.2798
1 15.0512 26.8324 14.5177
1 14.2834 26.0247 14.4661
1 15.874 26.8252 15.2798
1 16.6677 26.0315 15.2798
1 16.6787 26.8393 14.5229
1 15.8811 26.0303 14.4757
1 17.4614 26.8252 15.2798
1 18.2551 26.0315 15.2798
1 18.2833 26.8413 14.4981
1 17.4828 26.0396 14.5113
1 19.0488 26.8252 15.2798
1 19.8425 26.0315 15.2798
1 19.8611 26.8191 14.4797
1 19.0589 26.0221 14.5041
1 20.6362 26.8252 15.2798
1 21.4299 26.0315 15.2798
1 21.4597 26.8103 14.4721
1 20.6365 26.0109 14.4731
1 22.2236 26.8252 15.2798
1 23.0173 26.0315 15.2798
1 23.0191 26.8326 14.4689
1 22.2516 26.0237 14.4603
1 23.811 26.8252 15.2798
1 24.6047 26.0315 15.2798
1 24.5836 26.7925 14.4878
1 23.8204 26.0257 14.4927
1 25.3984 26.8252 15.2798
1 26.1921 26.0315 15.2798
1 26.1931 26.8364 14.4583
1 25.4113 26.035 14.4948
1 26.9858 26.8252 15.2798
1 27.7795 26.0315 15.2798
1 27.7788 26.8471 14.4799
1 26.9985 26.0441 14.4948
1 28.5732 26.8252 15.2798
1 29.3669 26.0315 15.2798
1 29.3063 26.809 14.4609
1 28.56 26.0599 14.464
1 0 25.2378 15.2798
1 0.793701 24.4441 15.2798
1 0.824044 25.2464 14.5182
1 0.036145 24.4403 14.4512
1 1.5874 25.2378 15.2798
1 2.3811 24.4441 15.2798
1 2.36856 25.2471 14.4798
1 1.5908 24.4204 14.4832
1 3.1748 25.2378 15.2798
1 3.9685 24.4441 15.2798
1 3.99411 25.2494 14.4977
1 3.1884 24.4445 14.488
1 4.7622 25.2378 15.2798
1 5.5559 24.4441 15.2798
1 5.56159 25.2362 14.4777
1 4.74428 24.4164 14.4658
1 6.3496 25.2378 15.2798
1 7.1433 24.4441 15.2798
1 7.16505 25.253 14.4988
1 6.37243 24.4547 14.487
1 7.93701 25.2378 15.2798
1 8.73071 24.4441 15.2798
1 8.72878 25.2387 14.4834
1 7.939 24.4435 14.4992
1 9.52441 25.2378 15.2798
1 10.3181 24.4441 15.2798
1 10.3238 25.2202 14.5119
1 9.50618 24.4336 14.4795
1 11.1118 25.2378 15.2798
1 11.9055 24.4441 15.2798
1 11.9192 25.222 14.4856
1 11.1184 24.4347 14.488
1 12.6992 25.2378 15.2798
1 13.4929 24.4441 15.2798
1 13.5085 25.2039 14.4811
1 12.6957 24.3982 14.4774
1 14.2866 25.2378 15.2798
1 15.0803 24.4441 15.2798
1 15.0804 25.2452 14.467
1 14.2798 24.4477 14.5055
1 15.874 25.2378 15.2798
1 16.6677 24.4441 15.2798
1 16.6598 25.263 14.5047
1 15.8762 24.4607 14.4869
1 17.4614 25.2378 15.2798
1 18.2551 24.4441 15.2798
1 18.2808 25.2387 14.4824
1 17.4653 24.437 14.513
1 19.0488 25.2378 15.2798
1 19.8425 24.4441 15.2798
1 19.8638 25.2297 14.4997
1 19.0813 24.4517 14.4807
1 20.6362 25.2378 15.2798
1 21.4299 24.4441 15.2798
1 21.4419 25.2474 14.505
1 20.6541 24.4609 14.5124
1 22.2236 25.2378 15.2798
1 23.0173 24.4441 15.2798
1 23.0321 25.2287 14.4953
1 22.2277 24.4703 14.4871
1 23.811 25.2378 15.2798
1 24.6047 24.4441 15.2798
1 24.601 25.2233 14.4732
1 23.7839 24.4575 14.4939
1 25.3984 25.2378 15.2798
1 26.1921 24.4441 15.2798
1 26.1827 25.2793 14.4978
1 25.3839 24.4601 14.5042
1 26.9858 25.2378 15.2798
1 27.7795 24.4441 15.2798
1 27.7591 25.2318 14.4657
1 26.9491 24.4563 14.5091
1 28.5732 25.2378 15.2798
1 29.3669 24.4441 15.2798
1 29.3125 25.2578 14.4617
1 28.5384 24.4406 14.4692
1 0 23.6504 15.2798
1 0.793701 22.8567 15.2798
1 0.812357 23.6213 14.4577
1 0.0544346 22.8554 14.4552
1 1.5874 23.6504 15.2798
1 2.3811 22.8567 15.2798
1 2.38806 23.6688 14.5118
1 1.61114 22.8681 14.5083
1 3.1748 23.6504 15.2798
1 3.9685 22.8567 15.2798
1 3.97593 23.6321 14.4786
1 3.19018 22.871 14.4989
1 4.7622 23.6504 15.2798
1 5.5559 22.8567 15.2798
1 5.55784 23.6551 14.4813
1 4.78482 22.8534 14.482
1 6.3496 23.6504 15.2798
1 7.1433 22.8567 15.2798
1 7.13848 23.6458 14.4706
1 6.3674 22.8362 14.5107
1 7.93701 23.6504 15.2798
1 8.73071 22.8567 15.2798
1 8.73931 23.6396 14.4947
1 7.94735 22.8685 14.457
1 9.52441 23.6504 15.2798
1 10.3181 22.8567 15.2798
1 10.3119 23.6729 14.4849
1 9.5421 22.8947 14.4525
1 11.1118 23.6504 15.2798
1 11.9055 22.8567 15.2798
1 11.901 23.6592 14.4665
1 11.1254 22.8671 14.4836
1 12.6992 23.6504 15.2798
1 13.4929 22.8567 15.2798
1 13.5108 23.6496 14.4801
1 12.6917 22.8471 14.4764
1 14.2866 23.6504 15.2798
1 15.0803 22.8567 15.2798
1 15.0987 23.6511 14.4954
1 14.3054 22.8366 14.4938
1 15.874 23.6504 15.2798
1 16.6677 22.8567 15.2798
1 16.6688 23.6463 14.497
1 15.8833 22.8518 14.4733
1 17.4614 23.6504 15.2798
1 18.2551 22.8567 15.2798
1 18.2441 23.6314 14.5025
1 17.4632 22.8345 14.4858
1 19.0488 23.6504 15.2798
1 19.8425 22.8567 15.2798
1 19.8656 23.6665 14.4843
1 19.0265 22.8739 14.4668
1 20.6362 23.6504 15.2798
1 21.4299 22.8567 15.2798
1 21.44 23.6674 14.4953
1 20.612 22.9057 14.4681
1 22.2236 23.6504 15.2798
1 23.0173 22.8567 15.2798
1 23.026 23.6698 14.5101
1 22.2371 22.8996 14.502
1 23.811 23.6504 15.2798
1 24.6047 22.8567 15.2798
1 24.5772 23.6307 14.483
1 23.7764 22.8675 14.4674
1 25.3984 23.6504 15.2798
1 26.1921 22.8567 15.2798
1 26.1883 23.6626 14.5057
1 25.3924 22.8556 14.5106
1 26.9858 23.6504 15.2798
1 27.7795 22.8567 15.2798
1 27.7487 23.6663 14.4939
1 26.9852 22.8446 14.5039
1 28.5732 23.6504 15.2798
1 29.3669 22.8567 15.2798
1 29.2962 23.6347 14.4502
1 28.5366 22.8732 14.4764
1 0 22.063 15.2798
1 0.793701 21.2693 15.2798
1 0.827727 22.0555 14.4666
1 0.0818881 21.2461 14.4483
1 1.5874 22.063 15.2798
1 2.3811 21.2693 15.2798
1 2.40084 22.0743 14.478
1 1.62242 21.2538 14.462
1 3.1748 22.063 15.2798
1 3.9685 21.2693 15.2798
1 3.99678 22.0768 14.4754
1 3.17325 21.2519 14.5022
1 4.7622 22.063 15.2798
1 5.5559 21.2693 15.2798
1 5.57316 22.0664 14.4869
1 4.73477 21.2906 14.4967
1 6.3496 22.063 15.2798
1 7.1433 21.2693 15.2798
1 7.16535 22.0496 14.4869
1 6.3596 21.2636 14.4685
1 7.93701 22.063 15.2798
1 8.73071 21.2693 15.2798
1 8.74542 22.0992 14.4712
1 7.93782 21.2774 14.47
1 9.52441 22.063 15.2798
1 10.3181 21.2693 15.2798
1 10.3162 22.0524 14.4648
1 9.51888 21.2697 14.478
1 11.1118 22.063 15.2798
1 11.9055 21.2693 15.2798
1 11.9042 22.0662 14.4966
1 11.095 21.2561 14.4842
1 12.6992 22.063 15.2798
1 13.4929 21.2693 15.2798
1 13.4858 22.057 14.4852
1 12.7038 21.2382 14.517
1 14.2866 22.063 15.2798
1 15.0803 21.2693 15.2798
1 15.0876 22.0535 14.4874
1 14.2748 21.2517 14.4784
1 15.874 22.063 15.2798
1 16.6677 21.2693 15.2798
1 16.665 22.0486 14.4772
1 15.875 21.2476 14.4767
1 17.4614 22.063 15.2798
1 18.2551 21.2693 15.2798
1 18.2611 22.0653 14.4693
1 17.4524 21.2812 14.4915
1 19.0488 22.063 15.2798
1 19.8425 21.2693 15.2798
1 19.8468 22.0788 14.4647
1 19.0473 21.252 14.4788
1 20.6362 22.063 15.2798
1 21.4299 21.2693 15.2798
1 21.4428 22.0963 14.4954
1 20.646 21.2888 14.4781
1 22.2236 22.063 15.2798
1 23.0173 21.2693 15.2798
1 23.036 22.0656 14.4791
1 22.2182 21.2589 14.4986
1 23.811 22.063 15.2798
1 24.6047 21.2693 15.2798
1 24.5956 22.0866 14.494
1 23.8139 21.2681 14.4823
1 25.3984 22.063 15.2798
1 26.1921 21.2693 15.2798
1 26.1771 22.0566 14.4844
1 25.3774 21.2912 14.4743
1 26.9858 22.063 15.2798
1 27.7795 21.2693 15.2798
1 27.7622 22.053 14.4792
1 26.9558 21.2507 14.4698
1 28.5732 22.063 15.2798
1 29.3669 21.2693 15.2798
1 29.3304 22.0613 14.4187
1 28.592 21.2579 14.465
1 0 20.4756 15.2798
1 0.793701 19.6819 15.2798
1 0.84254 20.473 14.488
1 0.0623017 19.6991 14.4437
1 1.5874 20.4756 15.2798
1 2.3811 19.6819 15.2798
1 2.39142 20.4659 14.4984
1 1.60316 19.6854 14.4892
1 3.1748 20.4756 15.2798
1 3.9685 19.6819 15.2798
1 3.97778 20.4683 14.5102
1 3.17118 19.667 14.49
1 4.7622 20.4756 15.2798
1 5.5559 19.6819 15.2798
1 5.54855 20.4858 14.4714
1 4.76396 19.6572 14.488
1 6.3496 20.4756 15.2798
1 7.1433 19.6819 15.2798
1 7.15207 20.4464 14.4853
1 6.33511 19.6693 14.4912
1 7.93701 20.4756 15.2798
1 8.73071 19.6819 15.2798
1 8.7292 20.4933 14.47
1 7.96727 19.6904 14.4746
1 9.52441 20.4756 15.2798
1 10.3181 19.6819 15.2798
1 10.3308 20.4734 14.5144
1 9.52946 19.7018 14.4996
1 11.1118 20.4756 15.2798
1 11.9055 19.6819 15.2798
1 11.9059 20.4791 14.4909
1 11.1288 19.6867 14.4731
1 12.6992 20.4756 15.2798
1 13.4929 19.6819 15.2798
1 13.4893 20.4788 14.4862
1 12.7221 19.6527 14.5104
1 14.2866 20.4756 15.2798
1 15.0803 19.6819 15.2798
1 15.0923 20.4965 14.4743
1 14.2841 19.6893 14.4996
1 15.874 20.4756 15.2798
1 16.6677 19.6819 15.2798
1 16.6525 20.4716 14.505
1 15.8785 19.6697 14.4964
1 17.4614 20.4756 15.2798
1 18.2551 19.6819 15.2798
1 18.235 20.5145 14.5035
1 17.4753 19.6824 14.4971
1 19.0488 20.4756 15.2798
1 19.8425 19.6819 15.2798
1 19.8145 20.4827 14.4927
1 19.0307 19.674 14.4882
1 20.6362 20.4756 15.2798
1 21.4299 19.6819 15.2798
1 21.4309 20.4454 14.4834
1 20.6198 19.661 14.4833
1 22.2236 20.4756 15.2798
1 23.0173 19.6819 15.2798
1 22.9942 20.4755 14.4997
1 22.201 19.6484 14.4758
1 23.811 20.4756 15.2798
1 24.6047 19.6819 15.2798
1 24.6243 20.4648 14.4991
1 23.7832 19.6977 14.5065
1 25.3984 20.4756 15.2798
1 26.1921 19.6819 15.2798
1 26.1571 20.4652 14.5081
1 25.3737 19.6818 14.5005
1 26.9858 20.4756 15.2798
1 27.7795 19.6819 15.2798
1 27.7233 20.4987 14.4916
1 26.954 19.6686 14.4832
1 28.5732 20.4756 15.2798
1 29.3669 19.6819 15.2798
1 29.2967 20.4973 14.46
1 28.521 19.6923 14.4781
1 0 18.8882 15.2798
1 0.793701 18.0945 15.2798
1 0.833192 18.8852 14.4847
1 0.0591415 18.0841 14.4356
1 1.5874 18.8882 15.2798
1 2.3811 18.0945 15.2798
1 2.37562 18.8689 14.4887
1 1.60266 18.0783 14.4967
1 3.1748 18.8882 15.2798
1 3.9685 18.0945 15.2798
1 3.97348 18.8781 14.4961
1 3.18672 18.088 14.4868
1 4.7622 18.8882 15.2798
1 5.5559 18.0945 15.2798
1 5.55395 18.8902 14.4844
1 4.76156 18.1016 14.4786
1 6.3496 18.8882 15.2798
1 7.1433 18.0945 15.2798
1 7.15704 18.8857 14.4963
1 6.35566 18.0875 14.4902
1 7.93701 18.8882 15.2798
1 8.73071 18.0945 15.2798
1 8.74491 18.8737 14.4975
1 7.9491 18.0797 14.4938
1 9.52441 18.8882 15.2798
1 10.3181 18.0945 15.2798
1 10.3344 18.885 14.491
1 9.53561 18.1051 14.493
1 11.1118 18.8882 15.2798
1 11.9055 18.0945 15.2798
1 11.8903 18.8887 14.492
1 11.1113 18.0956 14.4716
1 12.6992 18.8882 15.2798
1 13.4929 18.0945 15.2798
1 13.4726 18.865 14.5093
1 12.6857 18.071 14.4884
1 14.2866 18.8882 15.2798
1 15.0803 18.0945 15.2798
1 15.078 18.8878 14.5135
1 14.3499 18.0595 14.4769
1 15.874 18.8882 15.2798
1 16.6677 18.0945 15.2798
1 16.6738 18.8753 14.4706
1 15.8711 18.0874 14.4954
1 17.4614 18.8882 15.2798
1 18.2551 18.0945 15.2798
1 18.2578 18.8847 14.4839
1 17.4642 18.1018 14.4909
1 19.0488 18.8882 15.2798
1 19.8425 18.0945 15.2798
1 19.836 18.8826 14.4898
1 19.0492 18.0789 14.4937
1 20.6362 18.8882 15.2798
1 21.4299 18.0945 15.2798
1 21.4203 18.8954 14.5006
1 20.6274 18.0971 14.48
1 22.2236 18.8882 15.2798
1 23.0173 18.0945 15.2798
1 23.0015 18.8617 14.4826
1 22.2104 18.1128 14.4961
1 23.811 18.8882 15.2798
1 24.6047 18.0945 15.2798
1 24.5973 18.8911 14.4956
1 23.8192 18.0955 14.472
1 25.3984 18.8882 15.2798
1 26.1921 18.0945 15.2798
1 26.1588 18.8804 14.4959
1 25.356 18.1014 14.4874
1 26.9858 18.8882 15.2798
1 27.7795 18.0945 15.2798
1 27.7366 18.8931 14.4874
1 26.9697 18.1012 14.4974
1 28.5732 18.8882 15.2798
1 29.3669 18.0945 15.2798
1 29.2802 18.8985 14.4618
1 28.5112 18.0814 14.4882
1 0 17.3008 15.2798
1 0.793701 16.5071 15.2798
1 0.821935 17.2861 14.4745
1 0.0542586 16.4953 14.4309
1 1.5874 17.3008 15.2798
1 2.3811 16.5071 15.2798
1 2.39934 17.2723 14.474
1 1.58898 16.5147 14.4635
1 3.1748 17.3008 15.2798
1 3.9685 16.5071 15.2798
1 3.97798 17.3129 14.4821
1 3.19186 16.5183 14.4771
1 4.7622 17.3008 15.2798
1 5.5559 16.5071 15.2798
1 5.5644 17.3189 14.4793
1 4.77214 16.5223 14.4798
1 6.3496 17.3008 15.2798
1 7.1433 16.5071 15.2798
1 7.12073 17.321 14.4622
1 6.34938 16.5088 14.4776
1 7.93701 17.3008 15.2798
1 8.73071 16.5071 15.2798
1 8.74937 17.2854 14.4885
1 7.94256 16.5244 14.4933
1 9.52441 17.3008 15.2798
1 10.3181 16.5071 15.2798
1 10.3279 17.3013 14.4719
1 9.54061 16.5038 14.4774
1 11.1118 17.3008 15.2798
1 11.9055 16.5071 15.2798
1 11.882 17.2962 14.4732
1 11.0976 16.5075 14.4678
1 12.6992 17.3008 15.2798
1 13.4929 16.5071 15.2798
1 13.506 17.2727 14.4759
1 12.698 16.4766 14.4668
1 14.2866 17.3008 15.2798
1 15.0803 16.5071 15.2798
1 15.0816 17.2791 14.4928
1 14.2751 16.5017 14.4806
1 15.874 17.3008 15.2798
1 16.6677 16.5071 15.2798
1 16.6917 17.2938 14.4664
1 15.8781 16.5116 14.4807
1 17.4614 17.3008 15.2798
1 18.2551 16.5071 15.2798
1 18.2331 17.2821 14.4963
1 17.4541 16.5014 14.4779
1 19.0488 17.3008 15.2798
1 19.8425 16.5071 15.2798
1 19.845 17.293 14.4793
1 19.0603 16.512 14.5186
1 20.6362 17.3008 15.2798
1 21.4299 16.5071 15.2798
1 21.4285 17.2919 14.4708
1 20.6342 16.4958 14.4902
1 22.2236 17.3008 15.2798
1 23.0173 16.5071 15.2798
1 23.0038 17.2964 14.4669
1 22.2156 16.5073 14.473
1 23.811 17.3008 15.2798
1 24.6047 16.5071 15.2798
1 24.5754 17.2986 14.4821
1 23.7869 16.5085 14.4819
1 25.3984 17.3008 15.2798
1 26.1921 16.5071 15.2798
1 26.177 17.309 14.5028
1 25.3971 16.4973 14.4839
1 26.9858 17.3008 15.2798
1 27.7795 16.5071 15.2798
1 27.7465 17.2937 14.494
1 26.9721 16.5078 14.5045
1 28.5732 17.3008 15.2798
1 29.3669 16.5071 15.2798
1 29.2845 17.3086 14.4695
1 28.5125 16.4834 14.4571
1 0 15.7134 15.2798
1 0.793701 14.9197 15.2798
1 0.814658 15.7154 14.4905
1 0.0715561 14.9224 14.458
1 1.5874 15.7134 15.2798
1 2.3811 14.9197 15.2798
1 2.41071 15.7251 14.4907
1 1.61924 14.92 14.4699
1 3.1748 15.7134 15.2798
1 3.9685 14.9197 15.2798
1 3.98262 15.7293 14.4981
1 3.19014 14.9517 14.4891
1 4.7622 15.7134 15.2798
1 5.5559 14.9197 15.2798
1 5.55413 15.7109 14.4909
1 4.77607 14.9295 14.4879
1 6.3496 15.7134 15.2798
1 7.1433 14.9197 15.2798
1 7.12498 15.7444 14.4515
1 6.35027 14.9402 14.4867
1 7.93701 15.7134 15.2798
1 8.73071 14.9197 15.2798
1 8.72833 15.7145 14.4832
1 7.94294 14.959 14.4799
1 9.52441 15.7134 15.2798
1 10.3181 14.9197 15.2798
1 10.3165 15.7004 14.4833
1 9.49336 14.936 14.4902
1 11.1118 15.7134 15.2798
1 11.9055 14.9197 15.2798
1 11.917 15.7176 14.489
1 11.127 14.9093 14.4912
1 12.6992 15.7134 15.2798
1 13.4929 14.9197 15.2798
1 13.48 15.6863 14.4885
1 12.691 14.9076 14.5118
1 14.2866 15.7134 15.2798
1 15.0803 14.9197 15.2798
1 15.0589 15.7114 14.4777
1 14.2779 14.8927 14.4736
1 15.874 15.7134 15.2798
1 16.6677 14.9197 15.2798
1 16.6394 15.718 14.4556
1 15.8779 14.893 14.4944
1 17.4614 15.7134 15.2798
1 18.2551 14.9197 15.2798
1 18.2636 15.6963 14.5023
1 17.4512 14.9151 14.5029
1 19.0488 15.7134 15.2798
1 19.8425 14.9197 15.2798
1 19.8629 15.7246 14.4997
1 19.075 14.9169 14.473
1 20.6362 15.7134 15.2798
1 21.4299 14.9197 15.2798
1 21.4434 15.7283 14.4817
1 20.636 14.9268 14.4915
1 22.2236 15.7134 15.2798
1 23.0173 14.9197 15.2798
1 23.0194 15.724 14.4909
1 22.2034 14.9283 14.4993
1 23.811 15.7134 15.2798
1 24.6047 14.9197 15.2798
1 24.6006 15.7146 14.5024
1 23.8224 14.9083 14.5018
1 25.3984 15.7134 15.2798
1 26.1921 14.9197 15.2798
1 26.1727 15.7043 14.4792
1 25.3822 14.9168 14.4728
1 26.9858 15.7134 15.2798
1 27.7795 14.9197 15.2798
1 27.7907 15.6963 14.5006
1 27.0078 14.9182 14.4831
1 28.5732 15.7134 15.2798
1 29.3669 14.9197 15.2798
1 29.298 15.7003 14.434
1 28.5544 14.9296 14.4681
1 0 14.126 15.2798
1 0.793701 13.3323 15.2798
1 0.807523 14.1162 14.4686
1 0.0650531 13.3286 14.4473
1 1.5874 14.126 15.2798
1 2.3811 13.3323 15.2798
1 2.38987 14.1328 14.4882
1 1.58787 13.3301 14.4902
1 3.1748 14.126 15.2798
1 3.9685 13.3323 15.2798
1 3.98364 14.1174 14.4847
1 3.18788 13.3405 14.4683
1 4.7622 14.126 15.2798
1 5.5559 13.3323 15.2798
1 5.55942 14.1132 14.4789
1 4.75724 13.3155 14.5038
1 6.3496 14.126 15.2798
1 7.1433 13.3323 15.2798
1 7.14338 14.1413 14.4796
1 6.35344 13.3579 14.4844
1 7.93701 14.126 15.2798
1 8.73071 13.3323 15.2798
1 8.72495 14.1362 14.4622
1 7.92091 13.3491 14.506
1 9.52441 14.126 15.2798
1 10.3181 13.3323 15.2798
1 10.3061 14.1363 14.4746
1 9.52992 13.3196 14.5019
1 11.1118 14.126 15.2798
1 11.9055 13.3323 15.2798
1 11.9166 14.1213 14.5138
1 11.1126 13.3315 14.5262
1 12.6992 14.126 15.2798
1 13.4929 13.3323 15.2798
1 13.4743 14.0827 14.4852
1 12.6641 13.3201 14.4982
1 14.2866 14.126 15.2798
1 15.0803 13.3323 15.2798
1 15.0682 14.1157 14.4859
1 14.2999 13.332 14.498
1 15.874 14.126 15.2798
1 16.6677 13.3323 15.2798
1 16.6515 14.1339 14.4967
1 15.8787 13.3275 14.5228
1 17.4614 14.126 15.2798
1 18.2551 13.3323 15.2798
1 18.2464 14.1148 14.5077
1 17.4475 13.328 14.4988
1 19.0488 14.126 15.2798
1 19.8425 13.3323 15.2798
1 19.8653 14.1575 14.4633
1 19.0627 13.3483 14.4741
1 20.6362 14.126 15.2798
1 21.4299 13.3323 15.2798
1 21.4105 14.1127 14.4694
1 20.6419 13.3356 14.4865
1 22.2236 14.126 15.2798
1 23.0173 13.3323 15.2798
1 23.0322 14.1296 14.4895
1 22.217 13.3093 14.4827
1 23.811 14.126 15.2798
1 24.6047 13.3323 15.2798
1 24.5843 14.1356 14.4841
1 23.7924 13.3414 14.4585
1 25.3984 14.126 15.2798
1 26.1921 13.3323 15.2798
1 26.2034 14.1348 14.4809
1 25.3996 13.3614 14.4699
1 26.9858 14.126 15.2798
1 27.7795 13.3323 15.2798
1 27.7599 14.1146 14.4787
1 26.979 13.337 14.4714
1 28.5732 14.126 15.2798
1 29.3669 13.3323 15.2798
1 29.2984 14.1356 14.4647
1 28.5312 13.3336 14.4637
1 0 12.5386 15.2798
1 0.793701 11.7449 15.2798
1 0.832817 12.5508 14.4687
1 0.0498159 11.7434 14.4568
1 1.5874 12.5386 15.2798
1 2.3811 11.7449 15.2798
1 2.37176 12.5571 14.4735
1 1.57946 11.7372 14.4652
1 3.1748 12.5386 15.2798
1 3.9685 11.7449 15.2798
1 3.98186 12.5455 14.4582
1 3.17898 11.7698 14.4768
1 4.7622 12.5386 15.2798
1 5.5559 11.7449 15.2798
1 5.56149 12.5402 14.4999
1 4.77359 11.7474 14.5029
1 6.3496 12.5386 15.2798
1 7.1433 11.7449 15.2798
1 7.14828 12.5581 14.4526
1 6.35198 11.7523 14.4833
1 7.93701 12.5386 15.2798
1 8.73071 11.7449 15.2798
1 8.7298 12.5259 14.5016
1 7.93606 11.7297 14.4853
1 9.52441 12.5386 15.2798
1 10.3181 11.7449 15.2798
1 10.3214 12.5121 14.4616
1 9.5371 11.7543 14.506
1 11.1118 12.5386 15.2798
1 11.9055 11.7449 15.2798
1 11.9002 12.5283 14.4714
1 11.1144 11.7242 14.5038
1 12.6992 12.5386 15.2798
1 13.4929 11.7449 15.2798
1 13.4858 12.5501 14.4738
1 12.6993 11.7667 14.4774
1 14.2866 12.5386 15.2798
1 15.0803 11.7449 15.2798
1 15.0861 12.5398 14.4944
1 14.2716 11.775 14.4694
1 15.874 12.5386 15.2798
1 16.6677 11.7449 15.2798
1 16.66 12.5279 14.5041
1 15.8674 11.7367 14.4669
1 17.4614 12.5386 15.2798
1 18.2551 11.7449 15.2798
1 18.248 12.5343 14.5128
1 17.4451 11.7375 14.4886
1 19.0488 12.5386 15.2798
1 19.8425 11.7449 15.2798
1 19.8416 12.5367 14.4637
1 19.0442 11.7627 14.4906
1 20.6362 12.5386 15.2798
1 21.4299 11.7449 15.2798
1 21.4187 12.5375 14.4783
1 20.6425 11.7335 14.5033
1 22.2236 12.5386 15.2798
1 23.0173 11.7449 15.2798
1 23.0124 12.5186 14.4913
1 22.2225 11.7622 14.5099
1 23.811 12.5386 15.2798
1 24.6047 11.7449 15.2798
1 24.628 12.5536 14.501
1 23.8068 11.7567 14.4967
1 25.3984 12.5386 15.2798
1 26.1921 11.7449 15.2798
1 26.2105 12.5659 14.505
1 25.3985 11.7494 14.4998
1 26.9858 12.5386 15.2798
1 27.7795 11.7449 15.2798
1 27.7576 12.518 14.4747
1 26.9848 11.7394 14.471
1 28.5732 12.5386 15.2798
1 29.3669 11.7449 15.2798
1 29.3124 12.5418 14.4386
1 28.5484 11.7397 14.4556
1 0 10.9512 15.2798
1 0.793701 10.1575 15.2798
1 0.836821 10.9375 14.4818
1 0.0786738 10.1642 14.4431
1 1.5874 10.9512 15.2798
1 2.3811 10.1575 15.2798
1 2.39367 10.9726 14.4745
1 1.62017 10.1453 14.4881
1 3.1748 10.9512 15.2798
1 3.9685 10.1575 15.2798
1 3.96947 10.9445 14.4852
1 3.16616 10.1481 14.4818
1 4.7622 10.9512 15.2798
1 5.5559 10.1575 15.2798
1 5.56027 10.9758 14.4846
1 4.78674 10.1681 14.487
1 6.3496 10.9512 15.2798
1 7.1433 10.1575 15.2798
1 7.13492 10.9612 14.4896
1 6.37719 10.1595 14.4883
1 7.93701 10.9512 15.2798
1 8.73071 10.1575 15.2798
1 8.74226 10.9695 14.4903
1 7.93525 10.1412 14.4924
1 9.52441 10.9512 15.2798
1 10.3181 10.1575 15.2798
1 10.3393 10.9554 14.4734
1 9.52208 10.1506 14.4785
1 11.1118 10.9512 15.2798
1 11.9055 10.1575 15.2798
1 11.9101 10.9495 14.4845
1 11.1283 10.1579 14.5023
1 12.6992 10.9512 15.2798
1 13.4929 10.1575 15.2798
1 13.4945 10.9591 14.5002
1 12.6964 10.1549 14.5039
1 14.2866 10.9512 15.2798
1 15.0803 10.1575 15.2798
1 15.0358 10.9793 14.4766
1 14.2995 10.1541 14.4845
1 15.874 10.9512 15.2798
1 16.6677 10.1575 15.2798
1 16.6684 10.9312 14.4903
1 15.8551 10.2104 14.4744
1 17.4614 10.9512 15.2798
1 18.2551 10.1575 15.2798
1 18.2583 10.9554 14.4984
1 17.4562 10.1651 14.482
1 19.0488 10.9512 15.2798
1 19.8425 10.1575 15.2798
1 19.8129 10.9666 14.5178
1 19.0492 10.1695 14.5041
1 20.6362 10.9512 15.2798
1 21.4299 10.1575 15.2798
1 21.4311 10.9724 14.5277
1 20.6288 10.1849 14.5059
1 22.2236 10.9512 15.2798
1 23.0173 10.1575 15.2798
1 23.0111 10.9698 14.5037
1 22.2517 10.176 14.5035
1 23.811 10.9512 15.2798
1 24.6047 10.1575 15.2798
1 24.5881 10.9789 14.4651
1 23.8232 10.163 14.4756
1 25.3984 10.9512 15.2798
1 26.1921 10.1575 15.2798
1 26.1998 10.9653 14.5084
1 25.4024 10.1818 14.4965
1 26.9858 10.9512 15.2798
1 27.7795 10.1575 15.2798
1 27.7505 10.9471 14.4516
1 26.9987 10.1269 14.4736
1 28.5732 10.9512 15.2798
1 29.3669 10.1575 15.2798
1 29.3037 10.924 14.4436
1 28.5327 10.1549 14.4777
1 0 9.36379 15.2798
1 0.793701 8.57009 15.2798
1 0.843788 9.36503 14.4842
1 0.0826649 8.603 14.445
1 1.5874 9.36379 15.2798
1 2.3811 8.57009 15.2798
1 2.40622 9.35261 14.5048
1 1.61177 8.57557 14.4904
1 3.1748 9.36379 15.2798
1 3.9685 8.57009 15.2798
1 3.9993 9.35095 14.4945
1 3.18611 8.5761 14.4757
1 4.7622 9.36379 15.2798
1 5.5559 8.57009 15.2798
1 5.54986 9.34347 14.4814
1 4.77938 8.57051 14.4867
1 6.3496 9.36379 15.2798
1 7.1433 8.57009 15.2798
1 7.1574 9.36543 14.4749
1 6.33944 8.54659 14.5025
1 7.93701 9.36379 15.2798
1 8.73071 8.57009 15.2798
1 8.74242 9.35218 14.4736
1 7.92428 8.58543 14.4553
1 9.52441 9.36379 15.2798
1 10.3181 8.57009 15.2798
1 10.3295 9.35924 14.4874
1 9.528 8.57102 14.4809
1 11.1118 9.36379 15.2798
1 11.9055 8.57009 15.2798
1 11.9216 9.36006 14.4799
1 11.1437 8.55861 14.4955
1 12.6992 9.36379 15.2798
1 13.4929 8.57009 15.2798
1 13.5065 9.3517 14.4817
1 12.7075 8.56884 14.478
1 14.2866 9.36379 15.2798
1 15.0803 8.57009 15.2798
1 15.0838 9.38845 14.5051
1 14.3045 8.56327 14.4775
1 15.874 9.36379 15.2798
1 16.6677 8.57009 15.2798
1 16.6609 9.37663 14.484
1 15.8855 8.58659 14.494
1 17.4614 9.36379 15.2798
1 18.2551 8.57009 15.2798
1 18.2486 9.36907 14.4864
1 17.4587 8.57878 14.4918
1 19.0488 9.36379 15.2798
1 19.8425 8.57009 15.2798
1 19.8331 9.377 14.4852
1 19.0704 8.56111 14.4934
1 20.6362 9.36379 15.2798
1 21.4299 8.57009 15.2798
1 21.4329 9.39141 14.4913
1 20.6278 8.57407 14.5016
1 22.2236 9.36379 15.2798
1 23.0173 8.57009 15.2798
1 23.0279 9.38128 14.4744
1 22.2254 8.59424 14.4896
1 23.811 9.36379 15.2798
1 24.6047 8.57009 15.2798
1 24.6015 9.36812 14.4691
1 23.7878 8.57822 14.4955
1 25.3984 9.36379 15.2798
1 26.1921 8.57009 15.2798
1 26.195 9.37383 14.4781
1 25.397 8.57558 14.4675
1 26.9858 9.36379 15.2798
1 27.7795 8.57009 15.2798
1 27.7598 9.3525 14.5144
1 26.9656 8.57203 14.4758
1 28.5732 9.36379 15.2798
1 29.3669 8.57009 15.2798
1 29.2878 9.36221 14.4662
1 28.5259 8.56582 14.4895
1 0 7.77639 15.2798
1 0.793701 6.98268 15.2798
1 0.843581 7.79215 14.5098
1 0.050619 7.01443 14.4535
1 1.5874 7.77639 15.2798
1 2.3811 6.98268 15.2798
1 2.42614 7.77561 14.4854
1 1.60257 6.98548 14.4841
1 3.1748 7.77639 15.2798
1 3.9685 6.98268 15.2798
1 3.98251 7.79314 14.5003
1 3.19139 6.96412 14.5085
1 4.7622 7.77639 15.2798
1 5.5559 6.98268 15.2798
1 5.55318 7.77673 14.4887
1 4.76462 7.0084 14.5004
1 6.3496 7.77639 15.2798
1 7.1433 6.98268 15.2798
1 7.15951 7.78792 14.4533
1 6.36001 6.98348 14.4872
1 7.93701 7.77639 15.2798
1 8.73071 6.98268 15.2798
1 8.7339 7.78689 14.4913
1 7.93556 6.98119 14.4981
1 9.52441 7.77639 15.2798
1 10.3181 6.98268 15.2798
1 10.326 7.78621 14.4929
1 9.5066 6.97105 14.4986
1 11.1118 7.77639 15.2798
1 11.9055 6.98268 15.2798
1 11.9097 7.76185 14.4851
1 11.1272 6.98731 14.4659
1 12.6992 7.77639 15.2798
1 13.4929 6.98268 15.2798
1 13.5117 7.7779 14.463
1 12.7098 6.9757 14.4714
1 14.2866 7.77639 15.2798
1 15.0803 6.98268 15.2798
1 15.108 7.79746 14.4873
1 14.3004 6.97586 14.4677
1 15.874 7.77639 15.2798
1 16.6677 6.98268 15.2798
1 16.6866 7.74693 14.5109
1 15.8763 6.97413 14.4759
1 17.4614 7.77639 15.2798
1 18.2551 6.98268 15.2798
1 18.2558 7.78082 14.4961
1 17.4767 6.98838 14.4776
1 19.0488 7.77639 15.2798
1 19.8425 6.98268 15.2798
1 19.8485 7.76398 14.4885
1 19.0721 6.97711 14.4723
1 20.6362 7.77639 15.2798
1 21.4299 6.98268 15.2798
1 21.4405 7.77201 14.481
1 20.6206 6.98407 14.4906
1 22.2236 7.77639 15.2798
1 23.0173 6.98268 15.2798
1 23.0015 7.76114 14.4986
1 22.2384 7.00262 14.5058
1 23.811 7.77639 15.2798
1 24.6047 6.98268 15.2798
1 24.6093 7.77671 14.4942
1 23.8208 6.97222 14.4942
1 25.3984 7.77639 15.2798
1 26.1921 6.98268 15.2798
1 26.1719 7.7746 14.4891
1 25.3966 6.98429 14.4883
1 26.9858 7.77639 15.2798
1 27.7795 6.98268 15.2798
1 27.7673 7.77015 14.4872
1 26.9859 6.94481 14.4891
1 28.5732 7.77639 15.2798
1 29.3669 6.98268 15.2798
1 29.3123 7.79987 14.4707
1 28.5371 6.97835 14.5108
1 0 6.18898 15.2798
1 0.793701 5.39528 15.2798
1 0.831615 6.20196 14.5063
1 0.0893358 5.41126 14.4568
1 1.5874 6.18898 15.2798
1 2.3811 5.39528 15.2798
1 2.40476 6.17196 14.4868
1 1.61339 5.4195 14.4922
1 3.1748 6.18898 15.2798
1 3.9685 5.39528 15.2798
1 3.95702 6.20418 14.5041
1 3.18414 5.39188 14.4836
1 4.7622 6.18898 15.2798
1 5.5559 5.39528 15.2798
1 5.56022 6.21197 14.4819
1 4.7786 5.39624 14.4707
1 6.3496 6.18898 15.2798
1 7.1433 5.39528 15.2798
1 7.15376 6.20014 14.4974
1 6.37174 5.39951 14.4838
1 7.93701 6.18898 15.2798
1 8.73071 5.39528 15.2798
1 8.70279 6.17035 14.52
1 7.92169 5.39804 14.4977
1 9.52441 6.18898 15.2798
1 10.3181 5.39528 15.2798