12976
Atoms. Timestep: 4000000
1 30 7.10543e-15 15.9531
1 0.793701 29.2063 15.9531
1 0.826352 29.9466 15.1185
1 0.0612075 29.1932 15.0988
1 1.5874 7.10543e-15 15.9531
1 2.3811 29.2063 15.9531
1 2.41084 29.9487 15.1211
1 1.61062 29.2194 15.1512
1 3.1748 7.10543e-15 15.9531
1 3.9685 29.2063 15.9531
1 3.99161 29.9174 15.1273
1 3.19768 29.1736 15.1672
1 4.7622 7.10543e-15 15.9531
1 5.5559 29.2063 15.9531
1 5.5435 29.9274 15.1233
1 4.76064 29.1872 15.1591
1 6.3496 7.10543e-15 15.9531
1 7.1433 29.2063 15.9531
1 7.13472 29.9545 15.1296
1 6.36894 29.1885 15.173
1 7.93701 7.10543e-15 15.9531
1 8.73071 29.2063 15.9531
1 8.74089 29.9351 15.1383
1 7.92644 29.1611 15.1679
1 9.52441 7.10543e-15 15.9531
1 10.3181 29.2063 15.9531
1 10.2915 29.9174 15.1159
1 9.51377 29.1565 15.1572
1 11.1118 7.10543e-15 15.9531
1 11.9055 29.2063 15.9531
1 11.9021 29.9204 15.1304
1 11.1153 29.2051 15.1439
1 12.6992 7.10543e-15 15.9531
1 13.4929 29.2063 15.9531
1 13.496 29.9564 15.1031
1 12.6935 29.1916 15.1436
1 14.2866 7.10543e-15 15.9531
1 15.0803 29.2063 15.9531
1 15.0732 29.9088 15.1175
1 14.2739 29.1969 15.1574
1 15.874 7.10543e-15 15.9531
1 16.6677 29.2063 15.9531
1 16.7015 29.9137 15.1138
1 15.8685 29.1683 15.1321
1 17.4614 7.10543e-15 15.9531
1 18.2551 29.2063 15.9531
1 18.2409 29.8979 15.1215
1 17.4666 29.1537 15.1618
1 19.0488 7.10543e-15 15.9531
1 19.8425 29.2063 15.9531
1 19.8479 29.9388 15.1289
1 19.0649 29.1451 15.1628
1 20.6362 7.10543e-15 15.9531
1 21.4299 29.2063 15.9531
1 21.4462 29.9246 15.1133
1 20.6342 29.1658 15.1655
1 22.2236 7.10543e-15 15.9531
1 23.0173 29.2063 15.9531
1 23.0214 29.9413 15.129
1 22.2475 29.1825 15.1294
1 23.811 7.10543e-15 15.9531
1 24.6047 29.2063 15.9531
1 24.591 29.9097 15.1331
1 23.8109 29.1628 15.1489
1 25.3984 7.10543e-15 15.9531
1 26.1921 29.2063 15.9531
1 26.1743 29.9279 15.1208
1 25.3932 29.1611 15.1348
1 26.9858 7.10543e-15 15.9531
1 27.7795 29.2063 15.9531
1 27.718 29.9437 15.146
1 26.9527 29.1793 15.17
1 28.5732 7.10543e-15 15.9531
1 29.3669 29.2063 15.9531
1 29.3147 29.9022 15.0694
1 28.5376 29.1719 15.1631
1 30 28.4126 15.9531
1 0.793701 27.6189 15.9531
1 0.825329 28.419 15.1348
1 0.0671054 27.6034 15.0966
1 1.5874 28.4126 15.9531
1 2.3811 27.6189 15.9531
1 2.39797 28.4144 15.1558
1 1.61346 27.6078 15.1429
1 3.1748 28.4126 15.9531
1 3.9685 27.6189 15.9531
1 3.99679 28.3887 15.1504
1 3.16647 27.6266 15.1667
1 4.7622 28.4126 15.9531
1 5.5559 27.6189 15.9531
1 5.55386 28.3884 15.1802
1 4.78167 27.5946 15.1649
1 6.3496 28.4126 15.9531
1 7.1433 27.6189 15.9531
1 7.13117 28.4015 15.1684
1 6.33043 27.605 15.1439
1 7.93701 28.4126 15.9531
1 8.73071 27.6189 15.9531
1 8.71466 28.3711 15.1455
1 7.91884 27.5897 15.1607
1 9.52441 28.4126 15.9531
1 10.3181 27.6189 15.9531
1 10.3153 28.4144 15.1558
1 9.52085 27.5925 15.145
1 11.1118 28.4126 15.9531
1 11.9055 27.6189 15.9531
1 11.9219 28.3974 15.132
1 11.1209 27.6116 15.1544
1 12.6992 28.4126 15.9531
1 13.4929 27.6189 15.9531
1 13.4856 28.3949 15.1708
1 12.6871 27.5814 15.1698
1 14.2866 28.4126 15.9531
1 15.0803 27.6189 15.9531
1 15.0856 28.4028 15.1469
1 14.2827 27.6042 15.1557
1 15.874 28.4126 15.9531
1 16.6677 27.6189 15.9531
1 16.6607 28.3873 15.1583
1 15.8759 27.6017 15.1331
1 17.4614 28.4126 15.9531
1 18.2551 27.6189 15.9531
1 18.2443 28.402 15.1602
1 17.4753 27.6102 15.1569
1 19.0488 28.4126 15.9531
1 19.8425 27.6189 15.9531
1 19.844 28.3723 15.1563
1 19.0431 27.5811 15.1539
1 20.6362 28.4126 15.9531
1 21.4299 27.6189 15.9531
1 21.4275 28.3956 15.1282
1 20.6445 27.5724 15.1585
1 22.2236 28.4126 15.9531
1 23.0173 27.6189 15.9531
1 23.0292 28.3997 15.1523
1 22.2121 27.6034 15.1359
1 23.811 28.4126 15.9531
1 24.6047 27.6189 15.9531
1 24.6142 28.4029 15.1576
1 23.8171 27.6226 15.1607
1 25.3984 28.4126 15.9531
1 26.1921 27.6189 15.9531
1 26.186 28.3953 15.1687
1 25.3986 27.6005 15.1519
1 26.9858 28.4126 15.9531
1 27.7795 27.6189 15.9531
1 27.7714 28.3906 15.1653
1 26.9846 27.6188 15.1594
1 28.5732 28.4126 15.9531
1 29.3669 27.6189 15.9531
1 29.3015 28.3995 15.1258
1 28.5607 27.6214 15.1714
1 30 26.8252 15.9531
1 0.793701 26.0315 15.9531
1 0.839768 26.825 15.1524
1 0.0481641 26.0395 15.1262
1 1.5874 26.8252 15.9531
1 2.3811 26.0315 15.9531
1 2.3798 26.8359 15.1604
1 1.59987 26.0394 15.1245
1 3.1748 26.8252 15.9531
1 3.9685 26.0315 15.9531
1 3.96097 26.8409 15.1502
1 3.17046 26.0646 15.1466
1 4.7622 26.8252 15.9531
1 5.5559 26.0315 15.9531
1 5.54675 26.7961 15.1624
1 4.74735 26.0299 15.1463
1 6.3496 26.8252 15.9531
1 7.1433 26.0315 15.9531
1 7.1145 26.8133 15.1466
1 6.33183 26.0435 15.1506
1 7.93701 26.8252 15.9531
1 8.73071 26.0315 15.9531
1 8.73406 26.8274 15.1513
1 7.9387 26.0509 15.1653
1 9.52441 26.8252 15.9531
1 10.3181 26.0315 15.9531
1 10.3075 26.8217 15.1725
1 9.49692 26.0172 15.1905
1 11.1118 26.8252 15.9531
1 11.9055 26.0315 15.9531
1 11.8974 26.8218 15.1699
1 11.0944 26.0276 15.1704
1 12.6992 26.8252 15.9531
1 13.4929 26.0315 15.9531
1 13.4864 26.8083 15.1858
1 12.6602 26.0048 15.1425
1 14.2866 26.8252 15.9531
1 15.0803 26.0315 15.9531
1 15.0825 26.806 15.1641
1 14.2729 26.0241 15.1619
1 15.874 26.8252 15.9531
1 16.6677 26.0315 15.9531
1 16.67 26.8275 15.1211
1 15.8807 26.0373 15.1363
1 17.4614 26.8252 15.9531
1 18.2551 26.0315 15.9531
1 18.257 26.8121 15.1765
1 17.4624 26.0092 15.1751
1 19.0488 26.8252 15.9531
1 19.8425 26.0315 15.9531
1 19.8241 26.7982 15.1552
1 19.0551 25.9973 15.1429
1 20.6362 26.8252 15.9531
1 21.4299 26.0315 15.9531
1 21.4309 26.8074 15.1547
1 20.6393 26.0197 15.1821
1 22.2236 26.8252 15.9531
1 23.0173 26.0315 15.9531
1 23.0088 26.8332 15.1256
1 22.2258 26.0285 15.1814
1 23.811 26.8252 15.9531
1 24.6047 26.0315 15.9531
1 24.5844 26.8226 15.172
1 23.7817 26.0362 15.1403
1 25.3984 26.8252 15.9531
1 26.1921 26.0315 15.9531
1 26.1896 26.8207 15.1479
1 25.3862 26.0338 15.1589
1 26.9858 26.8252 15.9531
1 27.7795 26.0315 15.9531
1 27.7803 26.8089 15.1551
1 26.979 26.0274 15.1643
1 28.5732 26.8252 15.9531
1 29.3669 26.0315 15.9531
1 29.2983 26.8035 15.132
1 28.5413 26.0308 15.1577
1 30 25.2378 15.9531
1 0.793701 24.4441 15.9531
1 0.826447 25.2325 15.1402
1 0.0795899 24.4198 15.1496
1 1.5874 25.2378 15.9531
1 2.3811 24.4441 15.9531
1 2.36825 25.251 15.1682
1 1.62882 24.4233 15.1333
1 3.1748 25.2378 15.9531
1 3.9685 24.4441 15.9531
1 3.94656 25.2305 15.1676
1 3.17665 24.4376 15.1636
1 4.7622 25.2378 15.9531
1 5.5559 24.4441 15.9531
1 5.53477 25.2619 15.1885
1 4.73351 24.4405 15.1789
1 6.3496 25.2378 15.9531
1 7.1433 24.4441 15.9531
1 7.16067 25.2505 15.1444
1 6.35236 24.4599 15.1544
1 7.93701 25.2378 15.9531
1 8.73071 24.4441 15.9531
1 8.70368 25.2213 15.1527
1 7.94754 24.4572 15.149
1 9.52441 25.2378 15.9531
1 10.3181 24.4441 15.9531
1 10.3081 25.2438 15.1876
1 9.51751 24.4453 15.1722
1 11.1118 25.2378 15.9531
1 11.9055 24.4441 15.9531
1 11.892 25.2258 15.1668
1 11.0902 24.4251 15.167
1 12.6992 25.2378 15.9531
1 13.4929 24.4441 15.9531
1 13.4799 25.2603 15.1602
1 12.7036 24.4466 15.1409
1 14.2866 25.2378 15.9531
1 15.0803 24.4441 15.9531
1 15.0826 25.2427 15.153
1 14.2851 24.4429 15.1443
1 15.874 25.2378 15.9531
1 16.6677 24.4441 15.9531
1 16.669 25.2204 15.1522
1 15.8807 24.4504 15.16
1 17.4614 25.2378 15.9531
1 18.2551 24.4441 15.9531
1 18.2303 25.232 15.1536
1 17.467 24.425 15.1616
1 19.0488 25.2378 15.9531
1 19.8425 24.4441 15.9531
1 19.8534 25.2216 15.1577
1 19.0763 24.4277 15.1517
1 20.6362 25.2378 15.9531
1 21.4299 24.4441 15.9531
1 21.4121 25.2362 15.1489
1 20.6628 24.438 15.1724
1 22.2236 25.2378 15.9531
1 23.0173 24.4441 15.9531
1 23.0256 25.2288 15.167
1 22.2175 24.4437 15.1682
1 23.811 25.2378 15.9531
1 24.6047 24.4441 15.9531
1 24.5936 25.2356 15.1549
1 23.7974 24.421 15.15
1 25.3984 25.2378 15.9531
1 26.1921 24.4441 15.9531
1 26.1993 25.2267 15.1932
1 25.4109 24.4167 15.1674
1 26.9858 25.2378 15.9531
1 27.7795 24.4441 15.9531
1 27.77 25.2469 15.1734
1 26.9722 24.4521 15.1695
1 28.5732 25.2378 15.9531
1 29.3669 24.4441 15.9531
1 29.2918 25.2112 15.118
1 28.5386 24.437 15.1409
1 30 23.6504 15.9531
1 0.793701 22.8567 15.9531
1 0.838652 23.648 15.1457
1 0.0488436 22.8418 15.1098
1 1.5874 23.6504 15.9531
1 2.3811 22.8567 15.9531
1 2.40821 23.6456 15.1551
1 1.60882 22.8639 15.139
1 3.1748 23.6504 15.9531
1 3.9685 22.8567 15.9531
1 3.97857 23.6411 15.1709
1 3.19621 22.8507 15.1897
1 4.7622 23.6504 15.9531
1 5.5559 22.8567 15.9531
1 5.54022 23.6627 15.1381
1 4.75694 22.8742 15.1739
1 6.3496 23.6504 15.9531
1 7.1433 22.8567 15.9531
1 7.16401 23.6725 15.1485
1 6.3239 22.8277 15.1774
1 7.93701 23.6504 15.9531
1 8.73071 22.8567 15.9531
1 8.72997 23.6465 15.1599
1 7.93802 22.8522 15.1735
1 9.52441 23.6504 15.9531
1 10.3181 22.8567 15.9531
1 10.3071 23.6353 15.1473
1 9.53136 22.8389 15.1625
1 11.1118 23.6504 15.9531
1 11.9055 22.8567 15.9531
1 11.8952 23.6603 15.1667
1 11.1006 22.8493 15.1716
1 12.6992 23.6504 15.9531
1 13.4929 22.8567 15.9531
1 13.4974 23.6621 15.1643
1 12.6958 22.8889 15.1658
1 14.2866 23.6504 15.9531
1 15.0803 22.8567 15.9531
1 15.1064 23.6496 15.1519
1 14.3252 22.8662 15.1696
1 15.874 23.6504 15.9531
1 16.6677 22.8567 15.9531
1 16.6448 23.6463 15.1608
1 15.8957 22.8365 15.1667
1 17.4614 23.6504 15.9531
1 18.2551 22.8567 15.9531
1 18.2637 23.6595 15.1676
1 17.4755 22.8744 15.1684
1 19.0488 23.6504 15.9531
1 19.8425 22.8567 15.9531
1 19.8794 23.6365 15.1687
1 19.0447 22.8599 15.1643
1 20.6362 23.6504 15.9531
1 21.4299 22.8567 15.9531
1 21.433 23.6271 15.155
1 20.6633 22.855 15.1756
1 22.2236 23.6504 15.9531
1 23.0173 22.8567 15.9531
1 22.9956 23.6441 15.1443
1 22.2164 22.857 15.1659
1 23.811 23.6504 15.9531
1 24.6047 22.8567 15.9531
1 24.6269 23.6636 15.1618
1 23.7986 22.8546 15.179
1 25.3984 23.6504 15.9531
1 26.1921 22.8567 15.9531
1 26.1899 23.6306 15.1653
1 25.4135 22.8225 15.1626
1 26.9858 23.6504 15.9531
1 27.7795 22.8567 15.9531
1 27.7682 23.6729 15.1451
1 26.9809 22.8331 15.1661
1 28.5732 23.6504 15.9531
1 29.3669 22.8567 15.9531
1 29.31 23.6295 15.1293
1 28.5437 22.8523 15.1591
1 30 22.063 15.9531
1 0.793701 21.2693 15.9531
1 0.831826 22.0655 15.171
1 0.0457867 21.2785 15.1241
1 1.5874 22.063 15.9531
1 2.3811 21.2693 15.9531
1 2.3906 22.0676 15.1609
1 1.62544 21.29 15.1628
1 3.1748 22.063 15.9531
1 3.9685 21.2693 15.9531
1 3.99167 22.0742 15.1657
1 3.18176 21.2791 15.1574
1 4.7622 22.063 15.9531
1 5.5559 21.2693 15.9531
1 5.56541 22.0561 15.17
1 4.74284 21.2783 15.1457
1 6.3496 22.063 15.9531
1 7.1433 21.2693 15.9531
1 7.12811 22.0606 15.1593
1 6.34213 21.255 15.1547
1 7.93701 22.063 15.9531
1 8.73071 21.2693 15.9531
1 8.72707 22.0569 15.1524
1 7.93872 21.2443 15.1595
1 9.52441 22.063 15.9531
1 10.3181 21.2693 15.9531
1 10.3195 22.0435 15.1607
1 9.50093 21.2561 15.1434
1 11.1118 22.063 15.9531
1 11.9055 21.2693 15.9531
1 11.9007 22.0643 15.1651
1 11.1042 21.2695 15.1595
1 12.6992 22.063 15.9531
1 13.4929 21.2693 15.9531
1 13.5115 22.0701 15.159
1 12.7183 21.2602 15.1522
1 14.2866 22.063 15.9531
1 15.0803 21.2693 15.9531
1 15.0749 22.0589 15.1716
1 14.2729 21.2645 15.1948
1 15.874 22.063 15.9531
1 16.6677 21.2693 15.9531
1 16.6968 22.0284 15.1761
1 15.8899 21.2758 15.1823
1 17.4614 22.063 15.9531
1 18.2551 21.2693 15.9531
1 18.2578 22.0632 15.1553
1 17.454 21.2553 15.1507
1 19.0488 22.063 15.9531
1 19.8425 21.2693 15.9531
1 19.8715 22.0674 15.1587
1 19.0436 21.2528 15.204
1 20.6362 22.063 15.9531
1 21.4299 21.2693 15.9531
1 21.4314 22.0513 15.1402
1 20.642 21.2661 15.1931
1 22.2236 22.063 15.9531
1 23.0173 21.2693 15.9531
1 23.0118 22.0901 15.1711
1 22.2106 21.2494 15.1816
1 23.811 22.063 15.9531
1 24.6047 21.2693 15.9531
1 24.5975 22.0697 15.1602
1 23.8232 21.2732 15.1757
1 25.3984 22.063 15.9531
1 26.1921 21.2693 15.9531
1 26.2126 22.0791 15.1521
1 25.4172 21.2867 15.1647
1 26.9858 22.063 15.9531
1 27.7795 21.2693 15.9531
1 27.7558 22.0528 15.1659
1 26.9877 21.2742 15.1617
1 28.5732 22.063 15.9531
1 29.3669 21.2693 15.9531
1 29.3074 22.0541 15.1212
1 28.5646 21.26 15.124
1 30 20.4756 15.9531
1 0.793701 19.6819 15.9531
1 0.802622 20.4803 15.1401
1 0.0266462 19.6898 15.105
1 1.5874 20.4756 15.9531
1 2.3811 19.6819 15.9531
1 2.41176 20.4757 15.1613
1 1.6064 19.7009 15.1396
1 3.1748 20.4756 15.9531
1 3.9685 19.6819 15.9531
1 3.9602 20.4773 15.1497
1 3.16896 19.6922 15.1561
1 4.7622 20.4756 15.9531
1 5.5559 19.6819 15.9531
1 5.56884 20.4713 15.1578
1 4.77949 19.6559 15.1579
1 6.3496 20.4756 15.9531
1 7.1433 19.6819 15.9531
1 7.13589 20.4781 15.1753
1 6.3425 19.6804 15.1516
1 7.93701 20.4756 15.9531
1 8.73071 19.6819 15.9531
1 8.75353 20.4843 15.1544
1 7.94676 19.689 15.1486
1 9.52441 20.4756 15.9531
1 10.3181 19.6819 15.9531
1 10.319 20.4927 15.1588
1 9.54278 19.6663 15.1647
1 11.1118 20.4756 15.9531
1 11.9055 19.6819 15.9531
1 11.9077 20.4894 15.1579
1 11.1309 19.6934 15.1484
1 12.6992 20.4756 15.9531
1 13.4929 19.6819 15.9531
1 13.4623 20.4699 15.1713
1 12.6807 19.6807 15.1616
1 14.2866 20.4756 15.9531
1 15.0803 19.6819 15.9531
1 15.0898 20.4903 15.1757
1 14.2941 19.6832 15.1706
1 15.874 20.4756 15.9531
1 16.6677 19.6819 15.9531
1 16.6806 20.4878 15.1583
1 15.8814 19.6759 15.1659
1 17.4614 20.4756 15.9531
1 18.2551 19.6819 15.9531
1 18.2494 20.4654 15.1662
1 17.464 19.6959 15.148
1 19.0488 20.4756 15.9531
1 19.8425 19.6819 15.9531
1 19.8433 20.4704 15.1664
1 19.0375 19.6872 15.1586
1 20.6362 20.4756 15.9531
1 21.4299 19.6819 15.9531
1 21.4269 20.4794 15.1506
1 20.6183 19.6841 15.1795
1 22.2236 20.4756 15.9531
1 23.0173 19.6819 15.9531
1 23.0242 20.4611 15.1738
1 22.2227 19.6833 15.1478
1 23.811 20.4756 15.9531
1 24.6047 19.6819 15.9531
1 24.609 20.4955 15.1716
1 23.8036 19.6871 15.1807
1 25.3984 20.4756 15.9531
1 26.1921 19.6819 15.9531
1 26.201 20.5138 15.1873
1 25.3761 19.7058 15.1733
1 26.9858 20.4756 15.9531
1 27.7795 19.6819 15.9531
1 27.7858 20.4689 15.1542
1 26.9578 19.6862 15.1901
1 28.5732 20.4756 15.9531
1 29.3669 19.6819 15.9531
1 29.3152 20.485 15.1156
1 28.5646 19.6983 15.1455
1 30 18.8882 15.9531
1 0.793701 18.0945 15.9531
1 0.792553 18.8798 15.1441
1 0.0691998 18.0585 15.1437
1 1.5874 18.8882 15.9531
1 2.3811 18.0945 15.9531
1 2.38919 18.8954 15.1609
1 1.58752 18.1155 15.1466
1 3.1748 18.8882 15.9531
1 3.9685 18.0945 15.9531
1 3.96425 18.87 15.1505
1 3.16085 18.1117 15.1421
1 4.7622 18.8882 15.9531
1 5.5559 18.0945 15.9531
1 5.57725 18.8894 15.1576
1 4.76406 18.1148 15.162
1 6.3496 18.8882 15.9531
1 7.1433 18.0945 15.9531
1 7.11905 18.8715 15.1386
1 6.33917 18.0841 15.1652
1 7.93701 18.8882 15.9531
1 8.73071 18.0945 15.9531
1 8.71903 18.9091 15.1635
1 7.94322 18.1158 15.1765
1 9.52441 18.8882 15.9531
1 10.3181 18.0945 15.9531
1 10.3211 18.8794 15.1646
1 9.50923 18.1003 15.16
1 11.1118 18.8882 15.9531
1 11.9055 18.0945 15.9531
1 11.9053 18.9035 15.1326
1 11.1112 18.0858 15.1622
1 12.6992 18.8882 15.9531
1 13.4929 18.0945 15.9531
1 13.4854 18.8963 15.1603
1 12.7217 18.1003 15.1826
1 14.2866 18.8882 15.9531
1 15.0803 18.0945 15.9531
1 15.0782 18.8927 15.164
1 14.2869 18.0886 15.1707
1 15.874 18.8882 15.9531
1 16.6677 18.0945 15.9531
1 16.6594 18.9173 15.1559
1 15.9 18.0981 15.151
1 17.4614 18.8882 15.9531
1 18.2551 18.0945 15.9531
1 18.233 18.9068 15.1498
1 17.4384 18.1237 15.1648
1 19.0488 18.8882 15.9531
1 19.8425 18.0945 15.9531
1 19.8472 18.8934 15.1686
1 19.0245 18.1058 15.1634
1 20.6362 18.8882 15.9531
1 21.4299 18.0945 15.9531
1 21.4328 18.8966 15.1775
1 20.6295 18.0757 15.1716
1 22.2236 18.8882 15.9531
1 23.0173 18.0945 15.9531
1 23.0187 18.889 15.1653
1 22.2143 18.1062 15.1589
1 23.811 18.8882 15.9531
1 24.6047 18.0945 15.9531
1 24.6073 18.8804 15.1558
1 23.8238 18.0777 15.1739
1 25.3984 18.8882 15.9531
1 26.1921 18.0945 15.9531
1 26.1664 18.8937 15.1745
1 25.391 18.0754 15.1644
1 26.9858 18.8882 15.9531
1 27.7795 18.0945 15.9531
1 27.7649 18.9163 15.1507
1 26.9868 18.1056 15.1658
1 28.5732 18.8882 15.9531
1 29.3669 18.0945 15.9531
1 29.2946 18.8845 15.1311
1 28.5359 18.1139 15.1495
1 30 17.3008 15.9531
1 0.793701 16.5071 15.9531
1 0.820147 17.2894 15.1602
1 0.0483158 16.5008 15.1135
1 1.5874 17.3008 15.9531
1 2.3811 16.5071 15.9531
1 2.38715 17.3388 15.1799
1 1.60593 16.5121 15.166
1 3.1748 17.3008 15.9531
1 3.9685 16.5071 15.9531
1 3.97372 17.3149 15.1509
1 3.2098 16.4793 15.1453
1 4.7622 17.3008 15.9531
1 5.5559 16.5071 15.9531
1 5.52222 17.3325 15.1505
1 4.75843 16.5098 15.1576
1 6.3496 17.3008 15.9531
1 7.1433 16.5071 15.9531
1 7.12875 17.3414 15.1949
1 6.3263 16.5247 15.1708
1 7.93701 17.3008 15.9531
1 8.73071 16.5071 15.9531
1 8.71896 17.3099 15.1596
1 7.90213 16.4885 15.1786
1 9.52441 17.3008 15.9531
1 10.3181 16.5071 15.9531
1 10.2933 17.3229 15.1714
1 9.5096 16.5075 15.1679
1 11.1118 17.3008 15.9531
1 11.9055 16.5071 15.9531
1 11.9076 17.3227 15.172
1 11.1089 16.5529 15.1817
1 12.6992 17.3008 15.9531
1 13.4929 16.5071 15.9531
1 13.4928 17.3139 15.1451
1 12.6971 16.5096 15.1523
1 14.2866 17.3008 15.9531
1 15.0803 16.5071 15.9531
1 15.0631 17.3001 15.156
1 14.2878 16.5092 15.1506
1 15.874 17.3008 15.9531
1 16.6677 16.5071 15.9531
1 16.6754 17.3369 15.1471
1 15.8641 16.5043 15.1929
1 17.4614 17.3008 15.9531
1 18.2551 16.5071 15.9531
1 18.2369 17.2976 15.1679
1 17.4542 16.4829 15.1409
1 19.0488 17.3008 15.9531
1 19.8425 16.5071 15.9531
1 19.8393 17.3095 15.191
1 19.0479 16.4902 15.1477
1 20.6362 17.3008 15.9531
1 21.4299 16.5071 15.9531
1 21.4315 17.2754 15.1647
1 20.6404 16.4895 15.1622
1 22.2236 17.3008 15.9531
1 23.0173 16.5071 15.9531
1 23.0299 17.2955 15.1585
1 22.249 16.4961 15.172
1 23.811 17.3008 15.9531
1 24.6047 16.5071 15.9531
1 24.6103 17.3079 15.1247
1 23.8122 16.4944 15.1679
1 25.3984 17.3008 15.9531
1 26.1921 16.5071 15.9531
1 26.2066 17.2994 15.1854
1 25.3786 16.497 15.1473
1 26.9858 17.3008 15.9531
1 27.7795 16.5071 15.9531
1 27.77 17.2698 15.1541
1 26.9705 16.5022 15.1712
1 28.5732 17.3008 15.9531
1 29.3669 16.5071 15.9531
1 29.304 17.2595 15.1308
1 28.5476 16.5055 15.1814
1 30 15.7134 15.9531
1 0.793701 14.9197 15.9531
1 0.813968 15.7233 15.1315
1 0.0768159 14.9197 15.1309
1 1.5874 15.7134 15.9531
1 2.3811 14.9197 15.9531
1 2.39989 15.7338 15.1508
1 1.60625 14.9259 15.1673
1 3.1748 15.7134 15.9531
1 3.9685 14.9197 15.9531
1 3.96977 15.7304 15.1528
1 3.19812 14.9538 15.1673
1 4.7622 15.7134 15.9531
1 5.5559 14.9197 15.9531
1 5.55773 15.7036 15.1834
1 4.76382 14.9223 15.177
1 6.3496 15.7134 15.9531
1 7.1433 14.9197 15.9531
1 7.14572 15.7197 15.1505
1 6.35323 14.9174 15.1683
1 7.93701 15.7134 15.9531
1 8.73071 14.9197 15.9531
1 8.7246 15.7014 15.1318
1 7.93924 14.9065 15.1409
1 9.52441 15.7134 15.9531
1 10.3181 14.9197 15.9531
1 10.336 15.7301 15.146
1 9.53574 14.9035 15.1864
1 11.1118 15.7134 15.9531
1 11.9055 14.9197 15.9531
1 11.8957 15.7108 15.1509
1 11.0968 14.9348 15.1572
1 12.6992 15.7134 15.9531
1 13.4929 14.9197 15.9531
1 13.5024 15.7381 15.1649
1 12.7014 14.9362 15.1855
1 14.2866 15.7134 15.9531
1 15.0803 14.9197 15.9531
1 15.0758 15.721 15.1733
1 14.2869 14.9092 15.1692
1 15.874 15.7134 15.9531
1 16.6677 14.9197 15.9531
1 16.6897 15.6959 15.1639
1 15.8876 14.9495 15.1419
1 17.4614 15.7134 15.9531
1 18.2551 14.9197 15.9531
1 18.2564 15.705 15.1634
1 17.4987 14.9111 15.1599
1 19.0488 15.7134 15.9531
1 19.8425 14.9197 15.9531
1 19.8679 15.6944 15.1504
1 19.0384 14.9147 15.175
1 20.6362 15.7134 15.9531
1 21.4299 14.9197 15.9531
1 21.4364 15.7091 15.149
1 20.6187 14.9011 15.1704
1 22.2236 15.7134 15.9531
1 23.0173 14.9197 15.9531
1 22.9973 15.7141 15.1669
1 22.2231 14.938 15.1715
1 23.811 15.7134 15.9531
1 24.6047 14.9197 15.9531
1 24.607 15.7247 15.1951
1 23.8059 14.9164 15.1673
1 25.3984 15.7134 15.9531
1 26.1921 14.9197 15.9531
1 26.1687 15.7047 15.1614
1 25.4038 14.9129 15.1608
1 26.9858 15.7134 15.9531
1 27.7795 14.9197 15.9531
1 27.767 15.6913 15.1885
1 26.9705 14.9079 15.1824
1 28.5732 15.7134 15.9531
1 29.3669 14.9197 15.9531
1 29.3054 15.6902 15.1251
1 28.5819 14.9073 15.1682
1 30 14.126 15.9531
1 0.793701 13.3323 15.9531
1 0.812058 14.1207 15.1377
1 0.0222344 13.3248 15.0916
1 1.5874 14.126 15.9531
1 2.3811 13.3323 15.9531
1 2.39221 14.1264 15.1342
1 1.61323 13.3375 15.1472
1 3.1748 14.126 15.9531
1 3.9685 13.3323 15.9531
1 3.97361 14.128 15.1461
1 3.20865 13.3288 15.1468
1 4.7622 14.126 15.9531
1 5.5559 13.3323 15.9531
1 5.55166 14.1091 15.1621
1 4.76965 13.3572 15.1754
1 6.3496 14.126 15.9531
1 7.1433 13.3323 15.9531
1 7.13862 14.1027 15.1574
1 6.34157 13.3439 15.1858
1 7.93701 14.126 15.9531
1 8.73071 13.3323 15.9531
1 8.76372 14.1307 15.166
1 7.92604 13.3371 15.1538
1 9.52441 14.126 15.9531
1 10.3181 13.3323 15.9531
1 10.3498 14.131 15.1736
1 9.52074 13.3363 15.1466
1 11.1118 14.126 15.9531
1 11.9055 13.3323 15.9531
1 11.9223 14.1324 15.1767
1 11.1224 13.3269 15.1667
1 12.6992 14.126 15.9531
1 13.4929 13.3323 15.9531
1 13.5113 14.1334 15.168
1 12.7134 13.3605 15.1387
1 14.2866 14.126 15.9531
1 15.0803 13.3323 15.9531
1 15.0785 14.1597 15.1301
1 14.2974 13.3296 15.1303
1 15.874 14.126 15.9531
1 16.6677 13.3323 15.9531
1 16.6699 14.1311 15.169
1 15.8832 13.3442 15.1693
1 17.4614 14.126 15.9531
1 18.2551 13.3323 15.9531
1 18.2394 14.0947 15.1935
1 17.454 13.3346 15.1848
1 19.0488 14.126 15.9531
1 19.8425 13.3323 15.9531
1 19.8383 14.1454 15.1875
1 19.0695 13.346 15.1767
1 20.6362 14.126 15.9531
1 21.4299 13.3323 15.9531
1 21.4396 14.1399 15.1579
1 20.6149 13.3217 15.1701
1 22.2236 14.126 15.9531
1 23.0173 13.3323 15.9531
1 23.0252 14.1158 15.1775
1 22.235 13.3405 15.1783
1 23.811 14.126 15.9531
1 24.6047 13.3323 15.9531
1 24.6062 14.1117 15.1569
1 23.81 13.322 15.1798
1 25.3984 14.126 15.9531
1 26.1921 13.3323 15.9531
1 26.1977 14.1084 15.1619
1 25.3979 13.3361 15.1493
1 26.9858 14.126 15.9531
1 27.7795 13.3323 15.9531
1 27.7765 14.1088 15.1689
1 26.9812 13.329 15.1654
1 28.5732 14.126 15.9531
1 29.3669 13.3323 15.9531
1 29.3092 14.1185 15.1501
1 28.557 13.3104 15.1493
1 30 12.5386 15.9531
1 0.793701 11.7449 15.9531
1 0.822787 12.5525 15.1566
1 0.0971217 11.7541 15.1248
1 1.5874 12.5386 15.9531
1 2.3811 11.7449 15.9531
1 2.40068 12.5318 15.151
1 1.59258 11.7299 15.1821
1 3.1748 12.5386 15.9531
1 3.9685 11.7449 15.9531
1 3.97255 12.5407 15.1584
1 3.18598 11.7438 15.1648
1 4.7622 12.5386 15.9531
1 5.5559 11.7449 15.9531
1 5.55963 12.5362 15.1666
1 4.78452 11.7448 15.1666
1 6.3496 12.5386 15.9531
1 7.1433 11.7449 15.9531
1 7.1223 12.5409 15.1591
1 6.35378 11.7424 15.1675
1 7.93701 12.5386 15.9531
1 8.73071 11.7449 15.9531
1 8.71961 12.537 15.1544
1 7.94106 11.7403 15.156
1 9.52441 12.5386 15.9531
1 10.3181 11.7449 15.9531
1 10.3036 12.5451 15.1609
1 9.52973 11.7526 15.1852
1 11.1118 12.5386 15.9531
1 11.9055 11.7449 15.9531
1 11.9183 12.5319 15.1493
1 11.0865 11.7718 15.1412
1 12.6992 12.5386 15.9531
1 13.4929 11.7449 15.9531
1 13.4995 12.53 15.1572
1 12.6817 11.7272 15.1746
1 14.2866 12.5386 15.9531
1 15.0803 11.7449 15.9531
1 15.0898 12.5447 15.1516
1 14.2701 11.7437 15.1508
1 15.874 12.5386 15.9531
1 16.6677 11.7449 15.9531
1 16.6794 12.5479 15.1436
1 15.8847 11.7206 15.1427
1 17.4614 12.5386 15.9531
1 18.2551 11.7449 15.9531
1 18.2515 12.5386 15.1732
1 17.4438 11.7234 15.1435
1 19.0488 12.5386 15.9531
1 19.8425 11.7449 15.9531
1 19.851 12.5373 15.1502
1 19.0531 11.7594 15.1746
1 20.6362 12.5386 15.9531
1 21.4299 11.7449 15.9531
1 21.439 12.5419 15.1558
1 20.629 11.7414 15.1761
1 22.2236 12.5386 15.9531
1 23.0173 11.7449 15.9531
1 23.0089 12.5372 15.1716
1 22.2341 11.7238 15.175
1 23.811 12.5386 15.9531
1 24.6047 11.7449 15.9531
1 24.6035 12.5396 15.1613
1 23.8147 11.7352 15.1632
1 25.3984 12.5386 15.9531
1 26.1921 11.7449 15.9531
1 26.2104 12.5468 15.151
1 25.4186 11.7431 15.1663
1 26.9858 12.5386 15.9531
1 27.7795 11.7449 15.9531
1 27.7375 12.54 15.1812
1 26.9701 11.7248 15.1365
1 28.5732 12.5386 15.9531
1 29.3669 11.7449 15.9531
1 29.2905 12.4961 15.1401
1 28.5274 11.7519 15.1531
1 30 10.9512 15.9531
1 0.793701 10.1575 15.9531
1 0.8149 10.9453 15.1732
1 0.0583575 10.1387 15.1188
1 1.5874 10.9512 15.9531
1 2.3811 10.1575 15.9531
1 2.37583 10.937 15.1674
1 1.60481 10.1221 15.1539
1 3.1748 10.9512 15.9531
1 3.9685 10.1575 15.9531
1 4.01094 10.9583 15.1482
1 3.16543 10.1723 15.1624
1 4.7622 10.9512 15.9531
1 5.5559 10.1575 15.9531
1 5.54578 10.9418 15.1733
1 4.74223 10.158 15.1573
1 6.3496 10.9512 15.9531
1 7.1433 10.1575 15.9531
1 7.17189 10.9312 15.1753
1 6.35699 10.176 15.1626
1 7.93701 10.9512 15.9531
1 8.73071 10.1575 15.9531
1 8.73963 10.9422 15.1525
1 7.95111 10.1522 15.1829
1 9.52441 10.9512 15.9531
1 10.3181 10.1575 15.9531
1 10.3259 10.9721 15.1877
1 9.51628 10.1612 15.1709
1 11.1118 10.9512 15.9531
1 11.9055 10.1575 15.9531
1 11.8759 10.9655 15.1584
1 11.121 10.1385 15.1505
1 12.6992 10.9512 15.9531
1 13.4929 10.1575 15.9531
1 13.4973 10.933 15.1557
1 12.6922 10.1533 15.1569
1 14.2866 10.9512 15.9531
1 15.0803 10.1575 15.9531
1 15.0915 10.9506 15.1453
1 14.3236 10.1715 15.195
1 15.874 10.9512 15.9531
1 16.6677 10.1575 15.9531
1 16.6586 10.9229 15.1737
1 15.8719 10.1451 15.1453
1 17.4614 10.9512 15.9531
1 18.2551 10.1575 15.9531
1 18.2667 10.9256 15.175
1 17.4888 10.1243 15.1583
1 19.0488 10.9512 15.9531
1 19.8425 10.1575 15.9531
1 19.8529 10.9497 15.1751
1 19.0422 10.1472 15.1635
1 20.6362 10.9512 15.9531
1 21.4299 10.1575 15.9531
1 21.4287 10.9644 15.1508
1 20.6389 10.1758 15.1832
1 22.2236 10.9512 15.9531
1 23.0173 10.1575 15.9531
1 23.0203 10.9268 15.1544
1 22.2083 10.153 15.1578
1 23.811 10.9512 15.9531
1 24.6047 10.1575 15.9531
1 24.6169 10.9507 15.1509
1 23.8146 10.1715 15.1789
1 25.3984 10.9512 15.9531
1 26.1921 10.1575 15.9531
1 26.178 10.9565 15.1503
1 25.3816 10.1587 15.1597
1 26.9858 10.9512 15.9531
1 27.7795 10.1575 15.9531
1 27.7454 10.936 15.1627
1 26.9443 10.1317 15.1514
1 28.5732 10.9512 15.9531
1 29.3669 10.1575 15.9531
1 29.3029 10.9566 15.1321
1 28.5511 10.1538 15.153
1 30 9.36379 15.9531
1 0.793701 8.57009 15.9531
1 0.813092 9.34864 15.1303
1 0.0604975 8.56737 15.1407
1 1.5874 9.36379 15.9531
1 2.3811 8.57009 15.9531
1 2.39288 9.3823 15.1532
1 1.61914 8.57503 15.1529
1 3.1748 9.36379 15.9531
1 3.9685 8.57009 15.9531
1 3.94046 9.37188 15.1413
1 3.17819 8.59556 15.1669
1 4.7622 9.36379 15.9531
1 5.5559 8.57009 15.9531
1 5.55067 9.39234 15.1464
1 4.75037 8.58038 15.16
1 6.3496 9.36379 15.9531
1 7.1433 8.57009 15.9531
1 7.13564 9.35056 15.1503
1 6.33588 8.57624 15.1299
1 7.93701 9.36379 15.9531
1 8.73071 8.57009 15.9531
1 8.74399 9.37337 15.1457
1 7.93131 8.56199 15.1678
1 9.52441 9.36379 15.9531
1 10.3181 8.57009 15.9531
1 10.3224 9.36976 15.1821
1 9.52483 8.56602 15.176
1 11.1118 9.36379 15.9531
1 11.9055 8.57009 15.9531
1 11.8904 9.36447 15.1761
1 11.1091 8.56855 15.1521
1 12.6992 9.36379 15.9531
1 13.4929 8.57009 15.9531
1 13.4892 9.37151 15.1637
1 12.6684 8.56823 15.1617
1 14.2866 9.36379 15.9531
1 15.0803 8.57009 15.9531
1 15.102 9.35351 15.1521
1 14.2723 8.57026 15.1821
1 15.874 9.36379 15.9531
1 16.6677 8.57009 15.9531
1 16.6595 9.34519 15.1506
1 15.8612 8.55168 15.1918
1 17.4614 9.36379 15.9531
1 18.2551 8.57009 15.9531
1 18.2457 9.34361 15.1556
1 17.4636 8.55692 15.161
1 19.0488 9.36379 15.9531
1 19.8425 8.57009 15.9531
1 19.8501 9.35855 15.1816
1 19.0611 8.57713 15.1249
1 20.6362 9.36379 15.9531
1 21.4299 8.57009 15.9531
1 21.4361 9.35651 15.1589
1 20.6427 8.56231 15.1309
1 22.2236 9.36379 15.9531
1 23.0173 8.57009 15.9531
1 23.0107 9.37369 15.1558
1 22.2243 8.58876 15.164
1 23.811 9.36379 15.9531
1 24.6047 8.57009 15.9531
1 24.6117 9.376 15.1574
1 23.7685 8.61136 15.1566
1 25.3984 9.36379 15.9531
1 26.1921 8.57009 15.9531
1 26.1772 9.35186 15.159
1 25.3801 8.57127 15.1738
1 26.9858 9.36379 15.9531
1 27.7795 8.57009 15.9531
1 27.7628 9.35842 15.1488
1 26.9718 8.59366 15.1545
1 28.5732 9.36379 15.9531
1 29.3669 8.57009 15.9531
1 29.2746 9.37809 15.1361
1 28.5371 8.5747 15.1352
1 30 7.77639 15.9531
1 0.793701 6.98268 15.9531
1 0.814438 7.78203 15.1612
1 0.0896578 6.99031 15.142
1 1.5874 7.77639 15.9531
1 2.3811 6.98268 15.9531
1 2.41173 7.802 15.1402
1 1.63524 6.97777 15.1392
1 3.1748 7.77639 15.9531
1 3.9685 6.98268 15.9531
1 3.96617 7.80333 15.1519
1 3.19848 6.98126 15.1387
1 4.7622 7.77639 15.9531
1 5.5559 6.98268 15.9531
1 5.54023 7.7752 15.1727
1 4.74431 6.97666 15.1452
1 6.3496 7.77639 15.9531
1 7.1433 6.98268 15.9531
1 7.11939 7.75549 15.1419
1 6.33853 6.99116 15.1656
1 7.93701 7.77639 15.9531
1 8.73071 6.98268 15.9531
1 8.75025 7.7863 15.1792
1 7.97307 6.9731 15.1543
1 9.52441 7.77639 15.9531
1 10.3181 6.98268 15.9531
1 10.3073 7.78675 15.1487
1 9.51471 6.98613 15.1598
1 11.1118 7.77639 15.9531
1 11.9055 6.98268 15.9531
1 11.9009 7.78696 15.1791
1 11.0888 6.99783 15.1749
1 12.6992 7.77639 15.9531
1 13.4929 6.98268 15.9531
1 13.5062 7.80112 15.1477
1 12.698 7.02839 15.1635
1 14.2866 7.77639 15.9531
1 15.0803 6.98268 15.9531
1 15.0663 7.77347 15.1511
1 14.2805 6.97787 15.1522
1 15.874 7.77639 15.9531
1 16.6677 6.98268 15.9531
1 16.6352 7.78294 15.1694
1 15.8548 6.9692 15.1381
1 17.4614 7.77639 15.9531
1 18.2551 6.98268 15.9531
1 18.2611 7.75986 15.137
1 17.4526 7.00898 15.1492
1 19.0488 7.77639 15.9531
1 19.8425 6.98268 15.9531
1 19.8664 7.78999 15.1669
1 19.0492 6.9861 15.1598
1 20.6362 7.77639 15.9531
1 21.4299 6.98268 15.9531
1 21.4423 7.77379 15.1518
1 20.6484 7.01869 15.1707
1 22.2236 7.77639 15.9531
1 23.0173 6.98268 15.9531
1 22.9945 7.79868 15.1526
1 22.2181 7.01575 15.133
1 23.811 7.77639 15.9531
1 24.6047 6.98268 15.9531
1 24.5749 7.78003 15.1639
1 23.781 6.95075 15.1551
1 25.3984 7.77639 15.9531
1 26.1921 6.98268 15.9531
1 26.1751 7.74114 15.1432
1 25.3992 6.9783 15.1594
1 26.9858 7.77639 15.9531
1 27.7795 6.98268 15.9531
1 27.7672 7.78685 15.1678
1 26.9883 6.96464 15.1603
1 28.5732 7.77639 15.9531
1 29.3669 6.98268 15.9531
1 29.3002 7.77965 15.143
1 28.5463 6.9716 15.1634
1 30 6.18898 15.9531
1 0.793701 5.39528 15.9531
1 0.842643 6.17612 15.1335
1 0.0589716 5.3803 15.1175
1 1.5874 6.18898 15.9531
1 2.3811 5.39528 15.9531
1 2.40997 6.17544 15.1417
1 1.61351 5.36747 15.1721
1 3.1748 6.18898 15.9531
1 3.9685 5.39528 15.9531
1 3.993 6.19693 15.1418
1 3.18698 5.39749 15.1809
1 4.7622 6.18898 15.9531
1 5.5559 5.39528 15.9531
1 5.54593 6.20449 15.1679
1 4.76793 5.39248 15.1679
1 6.3496 6.18898 15.9531
1 7.1433 5.39528 15.9531
1 7.1542 6.19455 15.1632
1 6.36314 5.38307 15.1607
1 7.93701 6.18898 15.9531
1 8.73071 5.39528 15.9531
1 8.73269 6.17243 15.14
1 7.92644 5.40235 15.1806
1 9.52441 6.18898 15.9531