9376
Atoms. Timestep: 4000000
1 30 3.55271e-15 10.6646
1 0.793701 29.2063 10.6646
1 0.821272 29.9366 9.82762
1 0.0853335 29.1833 9.82892
1 1.5874 3.55271e-15 10.6646
1 2.3811 29.2063 10.6646
1 2.3946 29.9169 9.83102
1 1.59601 29.1719 9.89567
1 3.1748 3.55271e-15 10.6646
1 3.9685 29.2063 10.6646
1 3.97941 29.9124 9.81401
1 3.15542 29.2003 9.86371
1 4.7622 3.55271e-15 10.6646
1 5.5559 29.2063 10.6646
1 5.5716 29.9191 9.85016
1 4.78035 29.1883 9.86177
1 6.3496 3.55271e-15 10.6646
1 7.1433 29.2063 10.6646
1 7.15195 29.9233 9.82755
1 6.36409 29.1664 9.85212
1 7.93701 3.55271e-15 10.6646
1 8.73071 29.2063 10.6646
1 8.73112 29.9502 9.83817
1 7.93884 29.1587 9.86669
1 9.52441 3.55271e-15 10.6646
1 10.3181 29.2063 10.6646
1 10.3045 29.9258 9.81819
1 9.49997 29.1905 9.88348
1 11.1118 3.55271e-15 10.6646
1 11.9055 29.2063 10.6646
1 11.9003 29.9397 9.84389
1 11.0955 29.1778 9.87762
1 12.6992 3.55271e-15 10.6646
1 13.4929 29.2063 10.6646
1 13.508 29.9544 9.82145
1 12.7056 29.1899 9.86434
1 14.2866 3.55271e-15 10.6646
1 15.0803 29.2063 10.6646
1 15.0802 29.9383 9.8571
1 14.2971 29.1753 9.87341
1 15.874 3.55271e-15 10.6646
1 16.6677 29.2063 10.6646
1 16.664 29.9146 9.82834
1 15.8682 29.1463 9.82448
1 17.4614 3.55271e-15 10.6646
1 18.2551 29.2063 10.6646
1 18.2532 29.9351 9.83749
1 17.4738 29.1662 9.85242
1 19.0488 3.55271e-15 10.6646
1 19.8425 29.2063 10.6646
1 19.8375 29.9376 9.84553
1 19.0287 29.1854 9.85291
1 20.6362 3.55271e-15 10.6646
1 21.4299 29.2063 10.6646
1 21.4384 29.9377 9.85513
1 20.6458 29.1903 9.87339
1 22.2236 3.55271e-15 10.6646
1 23.0173 29.2063 10.6646
1 22.9966 29.9249 9.83745
1 22.2327 29.181 9.87833
1 23.811 3.55271e-15 10.6646
1 24.6047 29.2063 10.6646
1 24.6151 29.9332 9.82931
1 23.8039 29.1814 9.86664
1 25.3984 3.55271e-15 10.6646
1 26.1921 29.2063 10.6646
1 26.1998 29.9427 9.82329
1 25.3897 29.1584 9.86596
1 26.9858 3.55271e-15 10.6646
1 27.7795 29.2063 10.6646
1 27.7583 29.9026 9.8373
1 26.9731 29.1763 9.86613
1 28.5732 3.55271e-15 10.6646
1 29.3669 29.2063 10.6646
1 29.3076 29.9344 9.81081
1 28.5363 29.1927 9.83547
1 30 28.4126 10.6646
1 0.793701 27.6189 10.6646
1 0.816838 28.388 9.88636
1 0.0834968 27.5934 9.8396
1 1.5874 28.4126 10.6646
1 2.3811 27.6189 10.6646
1 2.38933 28.3964 9.88471
1 1.60175 27.6253 9.87729
1 3.1748 28.4126 10.6646
1 3.9685 27.6189 10.6646
1 3.97545 28.3763 9.85739
1 3.2041 27.6187 9.8633
1 4.7622 28.4126 10.6646
1 5.5559 27.6189 10.6646
1 5.54619 28.3886 9.8851
1 4.77665 27.577 9.89252
1 6.3496 28.4126 10.6646
1 7.1433 27.6189 10.6646
1 7.13379 28.3988 9.87165
1 6.3548 27.6181 9.87412
1 7.93701 28.4126 10.6646
1 8.73071 27.6189 10.6646
1 8.73707 28.4043 9.86365
1 7.95265 27.6277 9.88536
1 9.52441 28.4126 10.6646
1 10.3181 27.6189 10.6646
1 10.3107 28.3849 9.87581
1 9.52894 27.6269 9.86062
1 11.1118 28.4126 10.6646
1 11.9055 27.6189 10.6646
1 11.9127 28.4085 9.84695
1 11.131 27.5883 9.90577
1 12.6992 28.4126 10.6646
1 13.4929 27.6189 10.6646
1 13.492 28.3948 9.87799
1 12.6867 27.5987 9.85675
1 14.2866 28.4126 10.6646
1 15.0803 27.6189 10.6646
1 15.0625 28.3969 9.84973
1 14.2865 27.6067 9.87959
1 15.874 28.4126 10.6646
1 16.6677 27.6189 10.6646
1 16.6561 28.4083 9.87222
1 15.8853 27.616 9.8786
1 17.4614 28.4126 10.6646
1 18.2551 27.6189 10.6646
1 18.2548 28.3845 9.87348
1 17.4676 27.6096 9.86761
1 19.0488 28.4126 10.6646
1 19.8425 27.6189 10.6646
1 19.8368 28.3953 9.86189
1 19.037 27.568 9.87789
1 20.6362 28.4126 10.6646
1 21.4299 27.6189 10.6646
1 21.4157 28.3836 9.87935
1 20.6252 27.5901 9.90252
1 22.2236 28.4126 10.6646
1 23.0173 27.6189 10.6646
1 23.0033 28.3623 9.86587
1 22.2109 27.6094 9.85964
1 23.811 28.4126 10.6646
1 24.6047 27.6189 10.6646
1 24.5855 28.4001 9.87013
1 23.8047 27.6092 9.87271
1 25.3984 28.4126 10.6646
1 26.1921 27.6189 10.6646
1 26.1725 28.3919 9.90778
1 25.4044 27.6354 9.88382
1 26.9858 28.4126 10.6646
1 27.7795 27.6189 10.6646
1 27.7748 28.4298 9.84935
1 26.9604 27.6329 9.85837
1 28.5732 28.4126 10.6646
1 29.3669 27.6189 10.6646
1 29.3104 28.3881 9.8316
1 28.5131 27.5934 9.84253
1 30 26.8252 10.6646
1 0.793701 26.0315 10.6646
1 0.808611 26.8502 9.85524
1 0.0519005 26.0168 9.84722
1 1.5874 26.8252 10.6646
1 2.3811 26.0315 10.6646
1 2.35229 26.8437 9.90132
1 1.59351 26.057 9.87246
1 3.1748 26.8252 10.6646
1 3.9685 26.0315 10.6646
1 3.98313 26.8132 9.88085
1 3.1895 26.0308 9.87817
1 4.7622 26.8252 10.6646
1 5.5559 26.0315 10.6646
1 5.59661 26.8201 9.86024
1 4.76404 26.0123 9.853
1 6.3496 26.8252 10.6646
1 7.1433 26.0315 10.6646
1 7.1499 26.8471 9.87432
1 6.33796 26.0417 9.85389
1 7.93701 26.8252 10.6646
1 8.73071 26.0315 10.6646
1 8.76077 26.8316 9.87222
1 7.93797 26.0441 9.86323
1 9.52441 26.8252 10.6646
1 10.3181 26.0315 10.6646
1 10.3128 26.8181 9.849
1 9.5315 26.0144 9.88364
1 11.1118 26.8252 10.6646
1 11.9055 26.0315 10.6646
1 11.916 26.8137 9.88157
1 11.1227 26.0241 9.86005
1 12.6992 26.8252 10.6646
1 13.4929 26.0315 10.6646
1 13.484 26.8269 9.87307
1 12.7088 26.0089 9.87243
1 14.2866 26.8252 10.6646
1 15.0803 26.0315 10.6646
1 15.088 26.8257 9.87052
1 14.2954 26.0315 9.86014
1 15.874 26.8252 10.6646
1 16.6677 26.0315 10.6646
1 16.6868 26.8343 9.87132
1 15.8889 26.0243 9.85144
1 17.4614 26.8252 10.6646
1 18.2551 26.0315 10.6646
1 18.265 26.8 9.88273
1 17.4771 26.0038 9.90265
1 19.0488 26.8252 10.6646
1 19.8425 26.0315 10.6646
1 19.8337 26.8073 9.88249
1 19.0393 26.0265 9.89406
1 20.6362 26.8252 10.6646
1 21.4299 26.0315 10.6646
1 21.4208 26.8249 9.87705
1 20.6525 26.0228 9.87287
1 22.2236 26.8252 10.6646
1 23.0173 26.0315 10.6646
1 23.0013 26.8082 9.89503
1 22.2336 26.0194 9.88133
1 23.811 26.8252 10.6646
1 24.6047 26.0315 10.6646
1 24.575 26.8136 9.89022
1 23.809 26.025 9.8942
1 25.3984 26.8252 10.6646
1 26.1921 26.0315 10.6646
1 26.1842 26.8122 9.87582
1 25.4027 26.0435 9.91118
1 26.9858 26.8252 10.6646
1 27.7795 26.0315 10.6646
1 27.7393 26.801 9.88242
1 26.9819 26.0433 9.86077
1 28.5732 26.8252 10.6646
1 29.3669 26.0315 10.6646
1 29.2893 26.7934 9.82013
1 28.5289 26.0247 9.87109
1 30 25.2378 10.6646
1 0.793701 24.4441 10.6646
1 0.812849 25.2461 9.85271
1 0.0613789 24.4151 9.84314
1 1.5874 25.2378 10.6646
1 2.3811 24.4441 10.6646
1 2.40097 25.2385 9.86921
1 1.61847 24.4326 9.8545
1 3.1748 25.2378 10.6646
1 3.9685 24.4441 10.6646
1 3.98009 25.2581 9.86922
1 3.20789 24.4464 9.87937
1 4.7622 25.2378 10.6646
1 5.5559 24.4441 10.6646
1 5.55774 25.2405 9.87444
1 4.76387 24.458 9.89713
1 6.3496 25.2378 10.6646
1 7.1433 24.4441 10.6646
1 7.14708 25.2523 9.88867
1 6.37604 24.4406 9.89165
1 7.93701 25.2378 10.6646
1 8.73071 24.4441 10.6646
1 8.74037 25.2458 9.85462
1 7.95529 24.4429 9.85884
1 9.52441 25.2378 10.6646
1 10.3181 24.4441 10.6646
1 10.3466 25.2299 9.87134
1 9.53429 24.4444 9.87934
1 11.1118 25.2378 10.6646
1 11.9055 24.4441 10.6646
1 11.9185 25.2209 9.87901
1 11.1197 24.4341 9.87141
1 12.6992 25.2378 10.6646
1 13.4929 24.4441 10.6646
1 13.5043 25.2484 9.86969
1 12.7325 24.4149 9.8787
1 14.2866 25.2378 10.6646
1 15.0803 24.4441 10.6646
1 15.0773 25.2409 9.87417
1 14.2682 24.4494 9.88371
1 15.874 25.2378 10.6646
1 16.6677 24.4441 10.6646
1 16.6436 25.2499 9.87676
1 15.8581 24.4591 9.86467
1 17.4614 25.2378 10.6646
1 18.2551 24.4441 10.6646
1 18.2676 25.2437 9.87384
1 17.4773 24.4496 9.87955
1 19.0488 25.2378 10.6646
1 19.8425 24.4441 10.6646
1 19.8122 25.2301 9.85391
1 19.038 24.4273 9.87271
1 20.6362 25.2378 10.6646
1 21.4299 24.4441 10.6646
1 21.4082 25.2238 9.86641
1 20.6353 24.4507 9.87203
1 22.2236 25.2378 10.6646
1 23.0173 24.4441 10.6646
1 23.0305 25.2174 9.84482
1 22.2355 24.4203 9.86923
1 23.811 25.2378 10.6646
1 24.6047 24.4441 10.6646
1 24.608 25.2575 9.85879
1 23.8194 24.436 9.86762
1 25.3984 25.2378 10.6646
1 26.1921 24.4441 10.6646
1 26.1914 25.2556 9.87613
1 25.4014 24.471 9.85329
1 26.9858 25.2378 10.6646
1 27.7795 24.4441 10.6646
1 27.7429 25.2426 9.87287
1 26.9738 24.4277 9.87429
1 28.5732 25.2378 10.6646
1 29.3669 24.4441 10.6646
1 29.2901 25.2247 9.82542
1 28.5502 24.4401 9.84283
1 30 23.6504 10.6646
1 0.793701 22.8567 10.6646
1 0.822042 23.6473 9.87063
1 0.0672135 22.8621 9.85388
1 1.5874 23.6504 10.6646
1 2.3811 22.8567 10.6646
1 2.39489 23.6356 9.88093
1 1.59102 22.8585 9.87578
1 3.1748 23.6504 10.6646
1 3.9685 22.8567 10.6646
1 3.96334 23.665 9.87081
1 3.19406 22.8472 9.85639
1 4.7622 23.6504 10.6646
1 5.5559 22.8567 10.6646
1 5.54668 23.6789 9.89972
1 4.76976 22.8502 9.87716
1 6.3496 23.6504 10.6646
1 7.1433 22.8567 10.6646
1 7.13825 23.6492 9.85785
1 6.38819 22.854 9.8819
1 7.93701 23.6504 10.6646
1 8.73071 22.8567 10.6646
1 8.74379 23.6427 9.86463
1 7.9467 22.8768 9.84299
1 9.52441 23.6504 10.6646
1 10.3181 22.8567 10.6646
1 10.3214 23.639 9.86208
1 9.50567 22.8524 9.85136
1 11.1118 23.6504 10.6646
1 11.9055 22.8567 10.6646
1 11.9169 23.662 9.89494
1 11.1017 22.8582 9.89096
1 12.6992 23.6504 10.6646
1 13.4929 22.8567 10.6646
1 13.5128 23.6434 9.86718
1 12.7015 22.8608 9.86687
1 14.2866 23.6504 10.6646
1 15.0803 22.8567 10.6646
1 15.0975 23.6726 9.89644
1 14.2797 22.8658 9.87948
1 15.874 23.6504 10.6646
1 16.6677 22.8567 10.6646
1 16.6521 23.6467 9.86047
1 15.8616 22.8385 9.87967
1 17.4614 23.6504 10.6646
1 18.2551 22.8567 10.6646
1 18.2378 23.6332 9.8767
1 17.4225 22.8487 9.86192
1 19.0488 23.6504 10.6646
1 19.8425 22.8567 10.6646
1 19.857 23.6435 9.86595
1 19.0457 22.8491 9.88678
1 20.6362 23.6504 10.6646
1 21.4299 22.8567 10.6646
1 21.4394 23.6427 9.8806
1 20.6237 22.8498 9.87579
1 22.2236 23.6504 10.6646
1 23.0173 22.8567 10.6646
1 23.0405 23.6556 9.86335
1 22.2109 22.8541 9.86025
1 23.811 23.6504 10.6646
1 24.6047 22.8567 10.6646
1 24.5954 23.6504 9.87519
1 23.8175 22.8663 9.87712
1 25.3984 23.6504 10.6646
1 26.1921 22.8567 10.6646
1 26.1871 23.647 9.85505
1 25.39 22.8541 9.87781
1 26.9858 23.6504 10.6646
1 27.7795 22.8567 10.6646
1 27.7498 23.6618 9.85399
1 26.9764 22.8536 9.89389
1 28.5732 23.6504 10.6646
1 29.3669 22.8567 10.6646
1 29.3008 23.6395 9.85417
1 28.5462 22.8444 9.89126
1 30 22.063 10.6646
1 0.793701 21.2693 10.6646
1 0.804503 22.0455 9.87108
1 0.0538339 21.2851 9.81989
1 1.5874 22.063 10.6646
1 2.3811 21.2693 10.6646
1 2.36953 22.0803 9.88461
1 1.60624 21.2783 9.85557
1 3.1748 22.063 10.6646
1 3.9685 21.2693 10.6646
1 3.97732 22.0688 9.89355
1 3.17648 21.246 9.85882
1 4.7622 22.063 10.6646
1 5.5559 21.2693 10.6646
1 5.5487 22.0706 9.87641
1 4.77483 21.2633 9.90684
1 6.3496 22.063 10.6646
1 7.1433 21.2693 10.6646
1 7.15904 22.0562 9.89332
1 6.34844 21.2548 9.87643
1 7.93701 22.063 10.6646
1 8.73071 21.2693 10.6646
1 8.75116 22.0648 9.85874
1 7.95936 21.2585 9.83615
1 9.52441 22.063 10.6646
1 10.3181 21.2693 10.6646
1 10.296 22.055 9.87921
1 9.52387 21.2638 9.87045
1 11.1118 22.063 10.6646
1 11.9055 21.2693 10.6646
1 11.8913 22.0757 9.8954
1 11.0976 21.2422 9.8909
1 12.6992 22.063 10.6646
1 13.4929 21.2693 10.6646
1 13.4963 22.0731 9.85356
1 12.7137 21.2802 9.88621
1 14.2866 22.063 10.6646
1 15.0803 21.2693 10.6646
1 15.0766 22.0417 9.85993
1 14.2657 21.2672 9.87257
1 15.874 22.063 10.6646
1 16.6677 21.2693 10.6646
1 16.6332 22.054 9.88914
1 15.8768 21.2743 9.86762
1 17.4614 22.063 10.6646
1 18.2551 21.2693 10.6646
1 18.2406 22.0584 9.89
1 17.4706 21.2492 9.87154
1 19.0488 22.063 10.6646
1 19.8425 21.2693 10.6646
1 19.8526 22.0488 9.86774
1 19.0223 21.2661 9.87129
1 20.6362 22.063 10.6646
1 21.4299 21.2693 10.6646
1 21.4156 22.0592 9.86379
1 20.6437 21.2294 9.87603
1 22.2236 22.063 10.6646
1 23.0173 21.2693 10.6646
1 23.0153 22.0761 9.87949
1 22.2359 21.2824 9.87968
1 23.811 22.063 10.6646
1 24.6047 21.2693 10.6646
1 24.5899 22.0618 9.87344
1 23.8123 21.2966 9.87658
1 25.3984 22.063 10.6646
1 26.1921 21.2693 10.6646
1 26.2021 22.0494 9.85309
1 25.4049 21.2573 9.84977
1 26.9858 22.063 10.6646
1 27.7795 21.2693 10.6646
1 27.7473 22.0535 9.86277
1 26.9652 21.2521 9.87571
1 28.5732 22.063 10.6646
1 29.3669 21.2693 10.6646
1 29.294 22.0527 9.82396
1 28.5441 21.2706 9.86578
1 30 20.4756 10.6646
1 0.793701 19.6819 10.6646
1 0.81314 20.4889 9.87273
1 0.0612578 19.7068 9.83198
1 1.5874 20.4756 10.6646
1 2.3811 19.6819 10.6646
1 2.39051 20.4562 9.85309
1 1.58171 19.6678 9.8683
1 3.1748 20.4756 10.6646
1 3.9685 19.6819 10.6646
1 3.98579 20.4467 9.87514
1 3.22057 19.669 9.88789
1 4.7622 20.4756 10.6646
1 5.5559 19.6819 10.6646
1 5.56601 20.4563 9.86735
1 4.76911 19.6822 9.86124
1 6.3496 20.4756 10.6646
1 7.1433 19.6819 10.6646
1 7.13609 20.4651 9.88263
1 6.36808 19.6844 9.87171
1 7.93701 20.4756 10.6646
1 8.73071 19.6819 10.6646
1 8.75425 20.4728 9.88253
1 7.93208 19.6873 9.88241
1 9.52441 20.4756 10.6646
1 10.3181 19.6819 10.6646
1 10.3176 20.4656 9.8639
1 9.52507 19.6681 9.85448
1 11.1118 20.4756 10.6646
1 11.9055 19.6819 10.6646
1 11.9042 20.4804 9.90157
1 11.1196 19.6888 9.89942
1 12.6992 20.4756 10.6646
1 13.4929 19.6819 10.6646
1 13.5069 20.4768 9.84796
1 12.6998 19.6925 9.86943
1 14.2866 20.4756 10.6646
1 15.0803 19.6819 10.6646
1 15.0891 20.4853 9.85285
1 14.26 19.6998 9.87367
1 15.874 20.4756 10.6646
1 16.6677 19.6819 10.6646
1 16.6688 20.4684 9.85626
1 15.8609 19.6532 9.86982
1 17.4614 20.4756 10.6646
1 18.2551 19.6819 10.6646
1 18.2508 20.4537 9.86814
1 17.472 19.6823 9.85066
1 19.0488 20.4756 10.6646
1 19.8425 19.6819 10.6646
1 19.8514 20.4866 9.88559
1 19.0539 19.6853 9.85959
1 20.6362 20.4756 10.6646
1 21.4299 19.6819 10.6646
1 21.4458 20.4681 9.87939
1 20.625 19.7015 9.87415
1 22.2236 20.4756 10.6646
1 23.0173 19.6819 10.6646
1 22.9946 20.4724 9.86846
1 22.209 19.704 9.8646
1 23.811 20.4756 10.6646
1 24.6047 19.6819 10.6646
1 24.6008 20.4982 9.8887
1 23.7964 19.7045 9.8589
1 25.3984 20.4756 10.6646
1 26.1921 19.6819 10.6646
1 26.1816 20.4582 9.86397
1 25.391 19.6569 9.88958
1 26.9858 20.4756 10.6646
1 27.7795 19.6819 10.6646
1 27.7585 20.489 9.85245
1 26.96 19.7022 9.86148
1 28.5732 20.4756 10.6646
1 29.3669 19.6819 10.6646
1 29.2886 20.4824 9.83728
1 28.5511 19.6756 9.85376
1 30 18.8882 10.6646
1 0.793701 18.0945 10.6646
1 0.800241 18.8948 9.83693
1 0.0507182 18.1086 9.82921
1 1.5874 18.8882 10.6646
1 2.3811 18.0945 10.6646
1 2.40456 18.8861 9.86147
1 1.60011 18.116 9.88261
1 3.1748 18.8882 10.6646
1 3.9685 18.0945 10.6646
1 3.9812 18.8886 9.88144
1 3.2022 18.1149 9.87873
1 4.7622 18.8882 10.6646
1 5.5559 18.0945 10.6646
1 5.56613 18.894 9.86782
1 4.77615 18.0957 9.86213
1 6.3496 18.8882 10.6646
1 7.1433 18.0945 10.6646
1 7.15052 18.8944 9.86501
1 6.36373 18.1082 9.86352
1 7.93701 18.8882 10.6646
1 8.73071 18.0945 10.6646
1 8.72846 18.8849 9.8749
1 7.93904 18.0862 9.8595
1 9.52441 18.8882 10.6646
1 10.3181 18.0945 10.6646
1 10.328 18.8911 9.88618
1 9.53144 18.117 9.865
1 11.1118 18.8882 10.6646
1 11.9055 18.0945 10.6646
1 11.9181 18.868 9.8925
1 11.1192 18.099 9.88142
1 12.6992 18.8882 10.6646
1 13.4929 18.0945 10.6646
1 13.5084 18.894 9.84066
1 12.6967 18.0919 9.87603
1 14.2866 18.8882 10.6646
1 15.0803 18.0945 10.6646
1 15.0785 18.8856 9.83476
1 14.2721 18.0836 9.85943
1 15.874 18.8882 10.6646
1 16.6677 18.0945 10.6646
1 16.6831 18.8741 9.8725
1 15.8783 18.0982 9.83874
1 17.4614 18.8882 10.6646
1 18.2551 18.0945 10.6646
1 18.2627 18.8929 9.8558
1 17.4585 18.1222 9.8446
1 19.0488 18.8882 10.6646
1 19.8425 18.0945 10.6646
1 19.8385 18.8948 9.89265
1 19.0468 18.0814 9.87742
1 20.6362 18.8882 10.6646
1 21.4299 18.0945 10.6646
1 21.4044 18.8947 9.86545
1 20.6377 18.0877 9.85691
1 22.2236 18.8882 10.6646
1 23.0173 18.0945 10.6646
1 23.0103 18.8774 9.86301
1 22.1898 18.0872 9.88085
1 23.811 18.8882 10.6646
1 24.6047 18.0945 10.6646
1 24.6002 18.8977 9.85003
1 23.7994 18.0927 9.86782
1 25.3984 18.8882 10.6646
1 26.1921 18.0945 10.6646
1 26.1987 18.9141 9.87591
1 25.3903 18.1042 9.85298
1 26.9858 18.8882 10.6646
1 27.7795 18.0945 10.6646
1 27.7624 18.8837 9.87228
1 26.9714 18.1034 9.88579
1 28.5732 18.8882 10.6646
1 29.3669 18.0945 10.6646
1 29.3202 18.8818 9.8307
1 28.5598 18.0928 9.86596
1 30 17.3008 10.6646
1 0.793701 16.5071 10.6646
1 0.83529 17.3319 9.86695
1 0.0741967 16.5159 9.85446
1 1.5874 17.3008 10.6646
1 2.3811 16.5071 10.6646
1 2.38145 17.3071 9.8772
1 1.59911 16.4918 9.86967
1 3.1748 17.3008 10.6646
1 3.9685 16.5071 10.6646
1 3.96368 17.3078 9.88827
1 3.18057 16.5143 9.8891
1 4.7622 17.3008 10.6646
1 5.5559 16.5071 10.6646
1 5.60001 17.3301 9.87005
1 4.77443 16.5263 9.88093
1 6.3496 17.3008 10.6646
1 7.1433 16.5071 10.6646
1 7.12145 17.3177 9.84479
1 6.36391 16.5112 9.87539
1 7.93701 17.3008 10.6646
1 8.73071 16.5071 10.6646
1 8.72959 17.3123 9.88231
1 7.93886 16.5229 9.87228
1 9.52441 17.3008 10.6646
1 10.3181 16.5071 10.6646
1 10.3234 17.3206 9.87925
1 9.51169 16.5371 9.86871
1 11.1118 17.3008 10.6646
1 11.9055 16.5071 10.6646
1 11.9046 17.2954 9.85733
1 11.1048 16.5177 9.86773
1 12.6992 17.3008 10.6646
1 13.4929 16.5071 10.6646
1 13.4812 17.2965 9.87881
1 12.7089 16.5034 9.87748
1 14.2866 17.3008 10.6646
1 15.0803 16.5071 10.6646
1 15.0825 17.3399 9.88056
1 14.2858 16.5078 9.87713
1 15.874 17.3008 10.6646
1 16.6677 16.5071 10.6646
1 16.6758 17.2885 9.86956
1 15.893 16.5119 9.86668
1 17.4614 17.3008 10.6646
1 18.2551 16.5071 10.6646
1 18.2606 17.2845 9.8738
1 17.4552 16.4789 9.86204
1 19.0488 17.3008 10.6646
1 19.8425 16.5071 10.6646
1 19.8175 17.3093 9.85615
1 19.0634 16.5062 9.86523
1 20.6362 17.3008 10.6646
1 21.4299 16.5071 10.6646
1 21.4193 17.2917 9.87922
1 20.6407 16.5323 9.86923
1 22.2236 17.3008 10.6646
1 23.0173 16.5071 10.6646
1 22.9892 17.2872 9.86719
1 22.228 16.5085 9.85607
1 23.811 17.3008 10.6646
1 24.6047 16.5071 10.6646
1 24.6032 17.3021 9.8707
1 23.8275 16.5238 9.85505
1 25.3984 17.3008 10.6646
1 26.1921 16.5071 10.6646
1 26.2022 17.2892 9.88194
1 25.3896 16.4916 9.87377
1 26.9858 17.3008 10.6646
1 27.7795 16.5071 10.6646
1 27.769 17.3057 9.87472
1 27.0178 16.5069 9.87973
1 28.5732 17.3008 10.6646
1 29.3669 16.5071 10.6646
1 29.3218 17.2912 9.8318
1 28.5518 16.501 9.85064
1 30 15.7134 10.6646
1 0.793701 14.9197 10.6646
1 0.797864 15.7438 9.853
1 0.0706189 14.922 9.84818
1 1.5874 15.7134 10.6646
1 2.3811 14.9197 10.6646
1 2.40113 15.7048 9.89624
1 1.60531 14.9379 9.86989
1 3.1748 15.7134 10.6646
1 3.9685 14.9197 10.6646
1 3.99361 15.7227 9.86685
1 3.17685 14.9176 9.87037
1 4.7622 15.7134 10.6646
1 5.5559 14.9197 10.6646
1 5.56711 15.7007 9.84842
1 4.74629 14.9009 9.88263
1 6.3496 15.7134 10.6646
1 7.1433 14.9197 10.6646
1 7.13109 15.7186 9.86539
1 6.36345 14.9034 9.85206
1 7.93701 15.7134 10.6646
1 8.73071 14.9197 10.6646
1 8.7146 15.7083 9.84795
1 7.92817 14.908 9.85298
1 9.52441 15.7134 10.6646
1 10.3181 14.9197 10.6646
1 10.3005 15.7171 9.87584
1 9.53487 14.9036 9.87051
1 11.1118 15.7134 10.6646
1 11.9055 14.9197 10.6646
1 11.8947 15.7158 9.87652
1 11.1011 14.9323 9.8951
1 12.6992 15.7134 10.6646
1 13.4929 14.9197 10.6646
1 13.4938 15.7054 9.85707
1 12.7171 14.887 9.87602
1 14.2866 15.7134 10.6646
1 15.0803 14.9197 10.6646
1 15.0822 15.6859 9.86791
1 14.2686 14.9235 9.86268
1 15.874 15.7134 10.6646
1 16.6677 14.9197 10.6646
1 16.6718 15.7268 9.87594
1 15.8758 14.9446 9.8823
1 17.4614 15.7134 10.6646
1 18.2551 14.9197 10.6646
1 18.2833 15.7122 9.86184
1 17.4656 14.9222 9.87353
1 19.0488 15.7134 10.6646
1 19.8425 14.9197 10.6646
1 19.846 15.7256 9.87411
1 19.0492 14.9136 9.8892
1 20.6362 15.7134 10.6646
1 21.4299 14.9197 10.6646
1 21.4315 15.7287 9.86864
1 20.6278 14.9182 9.86763
1 22.2236 15.7134 10.6646
1 23.0173 14.9197 10.6646
1 23.0123 15.7166 9.87741
1 22.2125 14.9161 9.87009
1 23.811 15.7134 10.6646
1 24.6047 14.9197 10.6646
1 24.5849 15.7037 9.87545
1 23.7834 14.9109 9.88153
1 25.3984 15.7134 10.6646
1 26.1921 14.9197 10.6646
1 26.1866 15.7076 9.87211
1 25.4187 14.9072 9.87719
1 26.9858 15.7134 10.6646
1 27.7795 14.9197 10.6646
1 27.7845 15.6778 9.85791
1 26.9948 14.9083 9.87703
1 28.5732 15.7134 10.6646
1 29.3669 14.9197 10.6646
1 29.3111 15.7195 9.83652
1 28.5525 14.9146 9.84028
1 30 14.126 10.6646
1 0.793701 13.3323 10.6646
1 0.831926 14.1213 9.85214
1 0.0520239 13.3458 9.8507
1 1.5874 14.126 10.6646
1 2.3811 13.3323 10.6646
1 2.39371 14.1278 9.87345
1 1.62158 13.3463 9.86538
1 3.1748 14.126 10.6646
1 3.9685 13.3323 10.6646
1 3.95968 14.1267 9.86703
1 3.17152 13.36 9.87107
1 4.7622 14.126 10.6646
1 5.5559 13.3323 10.6646
1 5.58074 14.1124 9.87909
1 4.76862 13.3435 9.87531
1 6.3496 14.126 10.6646
1 7.1433 13.3323 10.6646
1 7.1416 14.0973 9.84658
1 6.34388 13.3358 9.86222
1 7.93701 14.126 10.6646
1 8.73071 13.3323 10.6646
1 8.71941 14.12 9.88615
1 7.91742 13.321 9.85706
1 9.52441 14.126 10.6646
1 10.3181 13.3323 10.6646
1 10.3379 14.1273 9.84503
1 9.54197 13.3353 9.87284
1 11.1118 14.126 10.6646
1 11.9055 13.3323 10.6646
1 11.8913 14.1343 9.85602
1 11.0965 13.3186 9.88973
1 12.6992 14.126 10.6646
1 13.4929 13.3323 10.6646
1 13.5207 14.1363 9.8718
1 12.6931 13.346 9.88316
1 14.2866 14.126 10.6646
1 15.0803 13.3323 10.6646
1 15.1054 14.1211 9.84915
1 14.3196 13.354 9.86158
1 15.874 14.126 10.6646
1 16.6677 13.3323 10.6646
1 16.6461 14.1292 9.86764
1 15.8757 13.3251 9.87478
1 17.4614 14.126 10.6646
1 18.2551 13.3323 10.6646
1 18.2454 14.141 9.86268
1 17.4485 13.3525 9.88024
1 19.0488 14.126 10.6646
1 19.8425 13.3323 10.6646
1 19.8384 14.1146 9.88099
1 19.0461 13.3137 9.85032
1 20.6362 14.126 10.6646
1 21.4299 13.3323 10.6646
1 21.428 14.1431 9.86684
1 20.6401 13.3442 9.87642
1 22.2236 14.126 10.6646
1 23.0173 13.3323 10.6646
1 23.0249 14.1458 9.90236
1 22.2191 13.3474 9.85559
1 23.811 14.126 10.6646
1 24.6047 13.3323 10.6646
1 24.6136 14.1178 9.87285
1 23.7817 13.3461 9.86466
1 25.3984 14.126 10.6646
1 26.1921 13.3323 10.6646
1 26.217 14.1298 9.84808
1 25.3693 13.3222 9.87714
1 26.9858 14.126 10.6646
1 27.7795 13.3323 10.6646
1 27.7627 14.1048 9.86933
1 27.0027 13.3136 9.86542
1 28.5732 14.126 10.6646
1 29.3669 13.3323 10.6646
1 29.2916 14.1344 9.84472
1 28.542 13.3287 9.84762
1 30 12.5386 10.6646
1 0.793701 11.7449 10.6646
1 0.835954 12.5298 9.86569
1 0.0664017 11.7538 9.83243
1 1.5874 12.5386 10.6646
1 2.3811 11.7449 10.6646
1 2.41121 12.5296 9.84663
1 1.58883 11.7397 9.87411
1 3.1748 12.5386 10.6646
1 3.9685 11.7449 10.6646
1 3.96263 12.5418 9.85802
1 3.19614 11.7258 9.86719
1 4.7622 12.5386 10.6646
1 5.5559 11.7449 10.6646
1 5.55316 12.5247 9.87581
1 4.76772 11.7397 9.86361
1 6.3496 12.5386 10.6646
1 7.1433 11.7449 10.6646
1 7.16392 12.5242 9.86304
1 6.35295 11.7516 9.863
1 7.93701 12.5386 10.6646
1 8.73071 11.7449 10.6646
1 8.75572 12.5303 9.852
1 7.96852 11.7292 9.85468
1 9.52441 12.5386 10.6646
1 10.3181 11.7449 10.6646
1 10.2906 12.528 9.87108
1 9.53251 11.7424 9.86879
1 11.1118 12.5386 10.6646
1 11.9055 11.7449 10.6646
1 11.9225 12.5307 9.89244
1 11.0949 11.7473 9.88312
1 12.6992 12.5386 10.6646
1 13.4929 11.7449 10.6646
1 13.5058 12.5436 9.88045
1 12.7156 11.7327 9.87976
1 14.2866 12.5386 10.6646
1 15.0803 11.7449 10.6646
1 15.0789 12.5332 9.88736
1 14.2939 11.7231 9.87532
1 15.874 12.5386 10.6646
1 16.6677 11.7449 10.6646
1 16.6911 12.5363 9.8575
1 15.8682 11.7238 9.88072
1 17.4614 12.5386 10.6646
1 18.2551 11.7449 10.6646
1 18.2604 12.5362 9.85914
1 17.4755 11.7429 9.87988
1 19.0488 12.5386 10.6646
1 19.8425 11.7449 10.6646
1 19.8397 12.5305 9.86294
1 19.0479 11.7453 9.87718
1 20.6362 12.5386 10.6646
1 21.4299 11.7449 10.6646
1 21.4305 12.5268 9.88246
1 20.655 11.7375 9.87588
1 22.2236 12.5386 10.6646
1 23.0173 11.7449 10.6646
1 22.9827 12.5435 9.87872
1 22.2375 11.7428 9.85863
1 23.811 12.5386 10.6646
1 24.6047 11.7449 10.6646
1 24.5609 12.5468 9.88707
1 23.7988 11.7643 9.87321
1 25.3984 12.5386 10.6646
1 26.1921 11.7449 10.6646
1 26.186 12.5461 9.85644
1 25.3831 11.731 9.87648
1 26.9858 12.5386 10.6646
1 27.7795 11.7449 10.6646
1 27.7597 12.525 9.85062
1 26.9926 11.7722 9.86762
1 28.5732 12.5386 10.6646
1 29.3669 11.7449 10.6646
1 29.3116 12.5387 9.84096
1 28.5403 11.7814 9.87454
1 30 10.9512 10.6646
1 0.793701 10.1575 10.6646
1 0.801851 10.9206 9.86263
1 0.0296503 10.1622 9.84788
1 1.5874 10.9512 10.6646
1 2.3811 10.1575 10.6646
1 2.38048 10.9364 9.87841
1 1.61138 10.1341 9.8542
1 3.1748 10.9512 10.6646
1 3.9685 10.1575 10.6646
1 3.98234 10.9117 9.85891
1 3.17274 10.1491 9.87584
1 4.7622 10.9512 10.6646
1 5.5559 10.1575 10.6646
1 5.58167 10.944 9.8639
1 4.78574 10.1511 9.86478
1 6.3496 10.9512 10.6646
1 7.1433 10.1575 10.6646
1 7.14565 10.937 9.87835
1 6.336 10.1538 9.86549
1 7.93701 10.9512 10.6646
1 8.73071 10.1575 10.6646
1 8.72598 10.934 9.85474
1 7.94365 10.1483 9.8478
1 9.52441 10.9512 10.6646
1 10.3181 10.1575 10.6646
1 10.3148 10.9616 9.88216
1 9.5384 10.1772 9.85502
1 11.1118 10.9512 10.6646
1 11.9055 10.1575 10.6646
1 11.8954 10.9489 9.85321
1 11.1023 10.1375 9.85298
1 12.6992 10.9512 10.6646
1 13.4929 10.1575 10.6646
1 13.4888 10.9369 9.88247
1 12.6824 10.1723 9.87182
1 14.2866 10.9512 10.6646
1 15.0803 10.1575 10.6646
1 15.0663 10.945 9.8736
1 14.2779 10.1454 9.87845
1 15.874 10.9512 10.6646
1 16.6677 10.1575 10.6646
1 16.6747 10.9506 9.8722
1 15.886 10.1432 9.85336
1 17.4614 10.9512 10.6646
1 18.2551 10.1575 10.6646
1 18.2349 10.9485 9.86692
1 17.4709 10.1526 9.84346
1 19.0488 10.9512 10.6646
1 19.8425 10.1575 10.6646
1 19.842 10.9594 9.90307
1 19.0341 10.1743 9.87174
1 20.6362 10.9512 10.6646
1 21.4299 10.1575 10.6646
1 21.4486 10.9488 9.88284
1 20.655 10.158 9.86336
1 22.2236 10.9512 10.6646
1 23.0173 10.1575 10.6646
1 23.0222 10.9548 9.85845
1 22.2236 10.171 9.86463
1 23.811 10.9512 10.6646
1 24.6047 10.1575 10.6646
1 24.6021 10.9519 9.89865
1 23.8099 10.1754 9.88964
1 25.3984 10.9512 10.6646
1 26.1921 10.1575 10.6646
1 26.2137 10.9683 9.91259
1 25.3998 10.1625 9.8736
1 26.9858 10.9512 10.6646
1 27.7795 10.1575 10.6646
1 27.7785 10.9609 9.87048
1 26.991 10.168 9.8596
1 28.5732 10.9512 10.6646
1 29.3669 10.1575 10.6646
1 29.2996 10.9457 9.84313
1 28.549 10.142 9.87473
1 30 9.36379 10.6646
1 0.793701 8.57009 10.6646
1 0.813854 9.36245 9.83163
1 0.0756375 8.55846 9.82807
1 1.5874 9.36379 10.6646
1 2.3811 8.57009 10.6646
1 2.38652 9.35133 9.84141
1 1.58649 8.56605 9.85594
1 3.1748 9.36379 10.6646
1 3.9685 8.57009 10.6646
1 3.9604 9.37179 9.85594
1 3.18606 8.56817 9.85536
1 4.7622 9.36379 10.6646
1 5.5559 8.57009 10.6646
1 5.55899 9.37575 9.86604
1 4.78262 8.59294 9.87767
1 6.3496 9.36379 10.6646
1 7.1433 8.57009 10.6646
1 7.13967 9.36409 9.87188
1 6.35867 8.57922 9.86775
1 7.93701 9.36379 10.6646
1 8.73071 8.57009 10.6646
1 8.73566 9.35509 9.88706
1 7.91376 8.55763 9.86608
1 9.52441 9.36379 10.6646
1 10.3181 8.57009 10.6646
1 10.3027 9.35457 9.87766
1 9.50849 8.5644 9.86077
1 11.1118 9.36379 10.6646
1 11.9055 8.57009 10.6646
1 11.9101 9.36026 9.88025
1 11.0873 8.57296 9.89732
1 12.6992 9.36379 10.6646
1 13.4929 8.57009 10.6646
1 13.4944 9.3707 9.88425
1 12.6838 8.59862 9.89922
1 14.2866 9.36379 10.6646
1 15.0803 8.57009 10.6646
1 15.1041 9.32677 9.861
1 14.2785 8.58673 9.8689
1 15.874 9.36379 10.6646
1 16.6677 8.57009 10.6646
1 16.6722 9.35973 9.86704
1 15.8717 8.55995 9.88925
1 17.4614 9.36379 10.6646
1 18.2551 8.57009 10.6646
1 18.2867 9.36372 9.86122
1 17.458 8.57383 9.84607
1 19.0488 9.36379 10.6646
1 19.8425 8.57009 10.6646
1 19.8485 9.36943 9.88751
1 19.0486 8.55703 9.87913
1 20.6362 9.36379 10.6646
1 21.4299 8.57009 10.6646
1 21.4323 9.36782 9.8724
1 20.6418 8.57959 9.89079
1 22.2236 9.36379 10.6646
1 23.0173 8.57009 10.6646
1 23.015 9.36921 9.88508
1 22.2203 8.55836 9.89203
1 23.811 9.36379 10.6646
1 24.6047 8.57009 10.6646
1 24.5783 9.3743 9.86875
1 23.8042 8.56819 9.86666
1 25.3984 9.36379 10.6646
1 26.1921 8.57009 10.6646
1 26.1917 9.37551 9.87589
1 25.3845 8.55945 9.87265
1 26.9858 9.36379 10.6646
1 27.7795 8.57009 10.6646
1 27.7487 9.37111 9.87616
1 26.9757 8.5871 9.88521
1 28.5732 9.36379 10.6646
1 29.3669 8.57009 10.6646
1 29.327 9.33516 9.85387
1 28.5445 8.57512 9.89948
1 30 7.77639 10.6646
1 0.793701 6.98268 10.6646
1 0.82431 7.75826 9.84202
1 0.0840625 7.00343 9.85094
1 1.5874 7.77639 10.6646
1 2.3811 6.98268 10.6646
1 2.3922 7.7696 9.86561
1 1.59747 7.0099 9.86196
1 3.1748 7.77639 10.6646
1 3.9685 6.98268 10.6646
1 3.99312 7.77491 9.85995
1 3.17972 6.99659 9.8476
1 4.7622 7.77639 10.6646
1 5.5559 6.98268 10.6646
1 5.57792 7.76445 9.87975
1 4.79084 6.9854 9.85127
1 6.3496 7.77639 10.6646
1 7.1433 6.98268 10.6646
1 7.16052 7.78127 9.86126
1 6.34896 6.97727 9.87521
1 7.93701 7.77639 10.6646
1 8.73071 6.98268 10.6646
1 8.73729 7.78434 9.86745
1 7.93152 6.99382 9.87598
1 9.52441 7.77639 10.6646
1 10.3181 6.98268 10.6646
1 10.3175 7.79083 9.88877
1 9.52078 6.98236 9.87516
1 11.1118 7.77639 10.6646
1 11.9055 6.98268 10.6646
1 11.9012 7.77739 9.88916
1 11.1077 6.98971 9.87799
1 12.6992 7.77639 10.6646
1 13.4929 6.98268 10.6646
1 13.4753 7.7835 9.90486
1 12.6693 6.94776 9.8576
1 14.2866 7.77639 10.6646
1 15.0803 6.98268 10.6646
1 15.0873 7.76316 9.84811
1 14.2851 6.97794 9.87458
1 15.874 7.77639 10.6646
1 16.6677 6.98268 10.6646
1 16.661 7.78222 9.83761
1 15.8897 6.99571 9.87023
1 17.4614 7.77639 10.6646
1 18.2551 6.98268 10.6646
1 18.2723 7.77812 9.86087
1 17.4497 6.99028 9.87094
1 19.0488 7.77639 10.6646
1 19.8425 6.98268 10.6646
1 19.8472 7.78714 9.88675
1 19.0532 6.99309 9.88744
1 20.6362 7.77639 10.6646
1 21.4299 6.98268 10.6646
1 21.4342 7.77108 9.89293
1 20.6338 7.00263 9.89017
1 22.2236 7.77639 10.6646
1 23.0173 6.98268 10.6646
1 23.0095 7.7842 9.87101
1 22.2194 6.97323 9.86984
1 23.811 7.77639 10.6646
1 24.6047 6.98268 10.6646
1 24.6032 7.76938 9.86898
1 23.8221 6.98303 9.87018
1 25.3984 7.77639 10.6646
1 26.1921 6.98268 10.6646
1 26.1906 7.78965 9.87376
1 25.4166 6.96399 9.87267
1 26.9858 7.77639 10.6646
1 27.7795 6.98268 10.6646
1 27.76 7.76615 9.88425
1 26.9608 6.98336 9.86488
1 28.5732 7.77639 10.6646
1 29.3669 6.98268 10.6646
1 29.305 7.78388 9.83642
1 28.5534 6.98048 9.85325
1 30 6.18898 10.6646
1 0.793701 5.39528 10.6646
1 0.832781 6.19183 9.85771
1 0.056907 5.39333 9.86443
1 1.5874 6.18898 10.6646
1 2.3811 5.39528 10.6646
1 2.3976 6.16384 9.87505
1 1.57686 5.41093 9.87312
1 3.1748 6.18898 10.6646
1 3.9685 5.39528 10.6646
1 3.99771 6.21394 9.87376
1 3.19201 5.4022 9.88226
1 4.7622 6.18898 10.6646
1 5.5559 5.39528 10.6646
1 5.55876 6.18933 9.8429
1 4.75822 5.40057 9.89032
1 6.3496 6.18898 10.6646
1 7.1433 5.39528 10.6646
1 7.12089 6.18295 9.87978
1 6.35161 5.41579 9.88155
1 7.93701 6.18898 10.6646
1 8.73071 5.39528 10.6646
1 8.73201 6.18298 9.8909
1 7.91904 5.40624 9.90837
1 9.52441 6.18898 10.6646