9376
Atoms. Timestep: 4000000
1 15 3.55271e-15 10.7517
1 15.7937 29.2063 10.7517
1 15.8368 29.9134 9.92142
1 15.0738 29.1509 9.91861
1 16.5874 3.55271e-15 10.7517
1 17.3811 29.2063 10.7517
1 17.3788 29.9089 9.94235
1 16.6119 29.1651 9.95228
1 18.1748 3.55271e-15 10.7517
1 18.9685 29.2063 10.7517
1 18.9598 29.9285 9.91208
1 18.1884 29.1466 9.96324
1 19.7622 3.55271e-15 10.7517
1 20.5559 29.2063 10.7517
1 20.5723 29.9235 9.9136
1 19.7477 29.175 9.96015
1 21.3496 3.55271e-15 10.7517
1 22.1433 29.2063 10.7517
1 22.1603 29.9426 9.92238
1 21.3739 29.1799 9.92863
1 22.937 3.55271e-15 10.7517
1 23.7307 29.2063 10.7517
1 23.7347 29.9061 9.93348
1 22.951 29.1612 9.96129
1 24.5244 3.55271e-15 10.7517
1 25.3181 29.2063 10.7517
1 25.3129 29.9202 9.93888
1 24.5396 29.1605 9.92794
1 26.1118 3.55271e-15 10.7517
1 26.9055 29.2063 10.7517
1 26.8709 29.9347 9.92063
1 26.0813 29.1737 9.96368
1 27.6992 3.55271e-15 10.7517
1 28.4929 29.2063 10.7517
1 28.4936 29.9235 9.88902
1 27.6993 29.1753 9.96476
1 29.2866 3.55271e-15 10.7517
1 0.08031 29.2063 10.7517
1 0.0922887 29.9545 9.92553
1 29.287 29.1931 9.9344
1 0.874011 3.55271e-15 10.7517
1 1.66771 29.2063 10.7517
1 1.69266 29.9485 9.92513
1 0.866316 29.2222 9.96724
1 2.46141 3.55271e-15 10.7517
1 3.25511 29.2063 10.7517
1 3.24754 29.9219 9.92423
1 2.47507 29.1724 9.94863
1 4.04881 3.55271e-15 10.7517
1 4.84251 29.2063 10.7517
1 4.84452 29.9201 9.9046
1 4.04957 29.1968 9.94898
1 5.63621 3.55271e-15 10.7517
1 6.42991 29.2063 10.7517
1 6.40097 29.9475 9.9322
1 5.64281 29.1828 9.94204
1 7.22361 3.55271e-15 10.7517
1 8.01732 29.2063 10.7517
1 8.00875 29.9335 9.93636
1 7.20419 29.1622 9.96194
1 8.81102 3.55271e-15 10.7517
1 9.60472 29.2063 10.7517
1 9.5829 29.9198 9.91786
1 8.78254 29.1562 9.98182
1 10.3984 3.55271e-15 10.7517
1 11.1921 29.2063 10.7517
1 11.1885 29.9176 9.93553
1 10.3989 29.1941 9.96361
1 11.9858 3.55271e-15 10.7517
1 12.7795 29.2063 10.7517
1 12.7686 29.9504 9.92022
1 11.9941 29.1899 9.93553
1 13.5732 3.55271e-15 10.7517
1 14.3669 29.2063 10.7517
1 14.2874 29.9061 9.89845
1 13.5302 29.1984 9.94852
1 15 28.4126 10.7517
1 15.7937 27.6189 10.7517
1 15.8088 28.3867 9.96935
1 15.0709 27.5946 9.92154
1 16.5874 28.4126 10.7517
1 17.3811 27.6189 10.7517
1 17.3978 28.3966 9.96621
1 16.6115 27.6062 9.96163
1 18.1748 28.4126 10.7517
1 18.9685 27.6189 10.7517
1 18.9743 28.374 9.94761
1 18.1748 27.5792 9.93689
1 19.7622 28.4126 10.7517
1 20.5559 27.6189 10.7517
1 20.5347 28.4017 9.92488
1 19.7577 27.584 9.94045
1 21.3496 28.4126 10.7517
1 22.1433 27.6189 10.7517
1 22.1592 28.3989 9.95215
1 21.3411 27.5999 9.94434
1 22.937 28.4126 10.7517
1 23.7307 27.6189 10.7517
1 23.7434 28.3956 9.96266
1 22.9523 27.6161 9.96992
1 24.5244 28.4126 10.7517
1 25.3181 27.6189 10.7517
1 25.3253 28.3952 9.97381
1 24.5365 27.5954 9.96042
1 26.1118 28.4126 10.7517
1 26.9055 27.6189 10.7517
1 26.9266 28.4012 9.95527
1 26.1237 27.6284 9.96423
1 27.6992 28.4126 10.7517
1 28.4929 27.6189 10.7517
1 28.5072 28.4073 9.95294
1 27.7247 27.6277 9.95714
1 29.2866 28.4126 10.7517
1 0.08031 27.6189 10.7517
1 0.0750694 28.4198 9.94808
1 29.2903 27.6132 9.94761
1 0.874011 28.4126 10.7517
1 1.66771 27.6189 10.7517
1 1.66496 28.4143 9.97777
1 0.864003 27.605 9.95363
1 2.46141 28.4126 10.7517
1 3.25511 27.6189 10.7517
1 3.26633 28.3942 9.95797
1 2.43103 27.6244 9.96354
1 4.04881 28.4126 10.7517
1 4.84251 27.6189 10.7517
1 4.84045 28.391 9.9686
1 4.06826 27.5912 9.96884
1 5.63621 28.4126 10.7517
1 6.42991 27.6189 10.7517
1 6.39874 28.4037 9.96262
1 5.62512 27.6155 9.92531
1 7.22361 28.4126 10.7517
1 8.01732 27.6189 10.7517
1 7.99231 28.3668 9.94561
1 7.19498 27.5918 9.95094
1 8.81102 28.4126 10.7517
1 9.60472 27.6189 10.7517
1 9.60048 28.4017 9.957
1 8.81517 27.5826 9.96309
1 10.3984 28.4126 10.7517
1 11.1921 27.6189 10.7517
1 11.2115 28.3894 9.94741
1 10.3954 27.601 9.94715
1 11.9858 28.4126 10.7517
1 12.7795 27.6189 10.7517
1 12.7502 28.3957 9.96094
1 11.9668 27.5764 9.96112
1 13.5732 28.4126 10.7517
1 14.3669 27.6189 10.7517
1 14.2912 28.4048 9.92012
1 13.5326 27.6089 9.94347
1 15 26.8252 10.7517
1 15.7937 26.0315 10.7517
1 15.8201 26.8182 9.9149
1 15.0819 26.025 9.90881
1 16.5874 26.8252 10.7517
1 17.3811 26.0315 10.7517
1 17.404 26.804 9.97896
1 16.6104 25.9933 9.97792
1 18.1748 26.8252 10.7517
1 18.9685 26.0315 10.7517
1 18.9585 26.8147 9.93295
1 18.2029 25.9999 9.93233
1 19.7622 26.8252 10.7517
1 20.5559 26.0315 10.7517
1 20.567 26.8149 9.94944
1 19.776 26.0168 9.9751
1 21.3496 26.8252 10.7517
1 22.1433 26.0315 10.7517
1 22.1572 26.8237 9.93264
1 21.3752 26.0239 9.97711
1 22.937 26.8252 10.7517
1 23.7307 26.0315 10.7517
1 23.722 26.8104 9.96171
1 22.9408 26.028 9.94015
1 24.5244 26.8252 10.7517
1 25.3181 26.0315 10.7517
1 25.3313 26.8159 9.95922
1 24.5505 26.0323 9.93834
1 26.1118 26.8252 10.7517
1 26.9055 26.0315 10.7517
1 26.9409 26.8084 9.96445
1 26.1509 26.023 9.96688
1 27.6992 26.8252 10.7517
1 28.4929 26.0315 10.7517
1 28.4855 26.8075 9.95052
1 27.7176 26.0331 9.96559
1 29.2866 26.8252 10.7517
1 0.08031 26.0315 10.7517
1 0.0899317 26.8214 9.97034
1 29.3024 26.0329 9.94888
1 0.874011 26.8252 10.7517
1 1.66771 26.0315 10.7517
1 1.64626 26.8335 9.95748
1 0.877939 26.0276 9.94232
1 2.46141 26.8252 10.7517
1 3.25511 26.0315 10.7517
1 3.24261 26.8421 9.964
1 2.47002 26.0653 9.94514
1 4.04881 26.8252 10.7517
1 4.84251 26.0315 10.7517
1 4.85172 26.7977 9.96261
1 4.04619 26.019 9.95274
1 5.63621 26.8252 10.7517
1 6.42991 26.0315 10.7517
1 6.4115 26.815 9.95375
1 5.65035 26.0342 9.9535
1 7.22361 26.8252 10.7517
1 8.01732 26.0315 10.7517
1 8.01927 26.8313 9.95521
1 7.23376 26.0572 9.96306
1 8.81102 26.8252 10.7517
1 9.60472 26.0315 10.7517
1 9.59874 26.8165 9.95754
1 8.80132 26.0194 9.97586
1 10.3984 26.8252 10.7517
1 11.1921 26.0315 10.7517
1 11.1886 26.8088 9.96792
1 10.3954 26.0308 9.96446
1 11.9858 26.8252 10.7517
1 12.7795 26.0315 10.7517
1 12.764 26.8179 9.98195
1 11.9585 26.0123 9.94278
1 13.5732 26.8252 10.7517
1 14.3669 26.0315 10.7517
1 14.2879 26.7981 9.93699
1 13.537 26.0249 9.94879
1 15 25.2378 10.7517
1 15.7937 24.4441 10.7517
1 15.8294 25.2053 9.94102
1 15.0685 24.4411 9.91225
1 16.5874 25.2378 10.7517
1 17.3811 24.4441 10.7517
1 17.3897 25.2335 9.94829
1 16.6202 24.4233 9.9405
1 18.1748 25.2378 10.7517
1 18.9685 24.4441 10.7517
1 18.9921 25.2155 9.95058
1 18.1825 24.4311 9.94893
1 19.7622 25.2378 10.7517
1 20.5559 24.4441 10.7517
1 20.5536 25.2337 9.9601
1 19.7818 24.4365 9.95714
1 21.3496 25.2378 10.7517
1 22.1433 24.4441 10.7517
1 22.1655 25.2298 9.96816
1 21.3581 24.4426 9.95502
1 22.937 25.2378 10.7517
1 23.7307 24.4441 10.7517
1 23.7418 25.2235 9.95666
1 22.9318 24.4185 9.9625
1 24.5244 25.2378 10.7517
1 25.3181 24.4441 10.7517
1 25.3525 25.236 9.9813
1 24.556 24.4128 9.95121
1 26.1118 25.2378 10.7517
1 26.9055 24.4441 10.7517
1 26.9361 25.2503 9.94586
1 26.1303 24.4497 9.97113
1 27.6992 25.2378 10.7517
1 28.4929 24.4441 10.7517
1 28.4978 25.2098 9.95011
1 27.6952 24.4413 9.956
1 29.2866 25.2378 10.7517
1 0.08031 24.4441 10.7517
1 0.0856719 25.2223 9.95253
1 29.3142 24.4151 9.9807
1 0.874011 25.2378 10.7517
1 1.66771 24.4441 10.7517
1 1.66276 25.2492 9.96922
1 0.893999 24.4301 9.94096
1 2.46141 25.2378 10.7517
1 3.25511 24.4441 10.7517
1 3.25023 25.2216 9.97259
1 2.45954 24.4396 9.94216
1 4.04881 25.2378 10.7517
1 4.84251 24.4441 10.7517
1 4.84622 25.2533 9.97456
1 4.02763 24.4367 9.9549
1 5.63621 25.2378 10.7517
1 6.42991 24.4441 10.7517
1 6.46167 25.2463 9.94717
1 5.63539 24.4557 9.94964
1 7.22361 25.2378 10.7517
1 8.01732 24.4441 10.7517
1 8.00351 25.2322 9.94171
1 7.21 24.4536 9.95198
1 8.81102 25.2378 10.7517
1 9.60472 24.4441 10.7517
1 9.61112 25.2423 9.96506
1 8.79442 24.4365 9.97667
1 10.3984 25.2378 10.7517
1 11.1921 24.4441 10.7517
1 11.1801 25.2256 9.9751
1 10.3568 24.4179 9.96916
1 11.9858 25.2378 10.7517
1 12.7795 24.4441 10.7517
1 12.7722 25.2622 9.97889
1 11.9935 24.4437 9.95597
1 13.5732 25.2378 10.7517
1 14.3669 24.4441 10.7517
1 14.3018 25.2381 9.91462
1 13.5343 24.4423 9.9276
1 15 23.6504 10.7517
1 15.7937 22.8567 10.7517
1 15.7928 23.6561 9.94322
1 15.0871 22.8537 9.92883
1 16.5874 23.6504 10.7517
1 17.3811 22.8567 10.7517
1 17.3883 23.6511 9.95397
1 16.6085 22.8778 9.96398
1 18.1748 23.6504 10.7517
1 18.9685 22.8567 10.7517
1 19 23.6357 9.96488
1 18.1699 22.8583 9.95453
1 19.7622 23.6504 10.7517
1 20.5559 22.8567 10.7517
1 20.5444 23.6319 9.95699
1 19.7633 22.859 9.95011
1 21.3496 23.6504 10.7517
1 22.1433 22.8567 10.7517
1 22.1181 23.6363 9.93534
1 21.3335 22.844 9.95384
1 22.937 23.6504 10.7517
1 23.7307 22.8567 10.7517
1 23.7451 23.664 9.95234
1 22.9152 22.8451 9.96986
1 24.5244 23.6504 10.7517
1 25.3181 22.8567 10.7517
1 25.3224 23.6305 9.96397
1 24.5243 22.844 9.96887
1 26.1118 23.6504 10.7517
1 26.9055 22.8567 10.7517
1 26.9172 23.6727 9.94757
1 26.132 22.8304 9.96578
1 27.6992 23.6504 10.7517
1 28.4929 22.8567 10.7517
1 28.4726 23.6359 9.95018
1 27.6781 22.8415 9.9502
1 29.2866 23.6504 10.7517
1 0.08031 22.8567 10.7517
1 0.0907245 23.6607 9.96444
1 29.2619 22.8421 9.96288
1 0.874011 23.6504 10.7517
1 1.66771 22.8567 10.7517
1 1.67177 23.649 9.96866
1 0.873308 22.8602 9.94422
1 2.46141 23.6504 10.7517
1 3.25511 22.8567 10.7517
1 3.2442 23.6368 9.95839
1 2.46502 22.8608 9.9621
1 4.04881 23.6504 10.7517
1 4.84251 22.8567 10.7517
1 4.8281 23.6581 9.92872
1 4.01803 22.8869 9.95932
1 5.63621 23.6504 10.7517
1 6.42991 22.8567 10.7517
1 6.41742 23.6598 9.95025
1 5.61759 22.833 9.9646
1 7.22361 23.6504 10.7517
1 8.01732 22.8567 10.7517
1 8.00824 23.648 9.95463
1 7.20701 22.8623 9.96106
1 8.81102 23.6504 10.7517
1 9.60472 22.8567 10.7517
1 9.58703 23.6324 9.94814
1 8.81449 22.8462 9.96853
1 10.3984 23.6504 10.7517
1 11.1921 22.8567 10.7517
1 11.1611 23.6599 9.96288
1 10.376 22.8346 9.97574
1 11.9858 23.6504 10.7517
1 12.7795 22.8567 10.7517
1 12.7556 23.6533 9.95402
1 11.9569 22.8818 9.96597
1 13.5732 23.6504 10.7517
1 14.3669 22.8567 10.7517
1 14.3053 23.6497 9.90931
1 13.5844 22.8409 9.94003
1 15 22.063 10.7517
1 15.7937 21.2693 10.7517
1 15.8251 22.0327 9.96515
1 15.0606 21.2687 9.93233
1 16.5874 22.063 10.7517
1 17.3811 21.2693 10.7517
1 17.3949 22.05 9.94441
1 16.5957 21.2619 9.94756
1 18.1748 22.063 10.7517
1 18.9685 21.2693 10.7517
1 18.9843 22.06 9.95194
1 18.1784 21.2514 9.98517
1 19.7622 22.063 10.7517
1 20.5559 21.2693 10.7517
1 20.5488 22.0518 9.94081
1 19.7658 21.2535 9.97692
1 21.3496 22.063 10.7517
1 22.1433 21.2693 10.7517
1 22.1397 22.0815 9.94367
1 21.332 21.2526 9.96468
1 22.937 22.063 10.7517
1 23.7307 21.2693 10.7517
1 23.7342 22.0799 9.95114
1 22.9674 21.2821 9.9674
1 24.5244 22.063 10.7517
1 25.3181 21.2693 10.7517
1 25.3411 22.0773 9.95452
1 24.5401 21.2881 9.95007
1 26.1118 22.063 10.7517
1 26.9055 21.2693 10.7517
1 26.8821 22.05 9.94584
1 26.1288 21.2684 9.94704
1 27.6992 22.063 10.7517
1 28.4929 21.2693 10.7517
1 28.4942 22.0563 9.97868
1 27.7102 21.2621 9.92497
1 29.2866 22.063 10.7517
1 0.08031 21.2693 10.7517
1 0.0650993 22.0795 9.9872
1 29.2682 21.2749 9.97959
1 0.874011 22.063 10.7517
1 1.66771 21.2693 10.7517
1 1.6511 22.0652 9.9408
1 0.884089 21.2997 9.96305
1 2.46141 22.063 10.7517
1 3.25511 21.2693 10.7517
1 3.26308 22.0795 9.96877
1 2.45495 21.2839 9.94697
1 4.04881 22.063 10.7517
1 4.84251 21.2693 10.7517
1 4.82753 22.0619 9.9595
1 4.00601 21.2866 9.93827
1 5.63621 22.063 10.7517
1 6.42991 21.2693 10.7517
1 6.41589 22.0619 9.93938
1 5.63338 21.2537 9.95029
1 7.22361 22.063 10.7517
1 8.01732 21.2693 10.7517
1 7.99258 22.0635 9.95705
1 7.21049 21.2415 9.95137
1 8.81102 22.063 10.7517
1 9.60472 21.2693 10.7517
1 9.57155 22.0436 9.95521
1 8.77743 21.2494 9.94541
1 10.3984 22.063 10.7517
1 11.1921 21.2693 10.7517
1 11.1646 22.0649 9.9778
1 10.3859 21.2654 9.97913
1 11.9858 22.063 10.7517
1 12.7795 21.2693 10.7517
1 12.7793 22.064 9.9468
1 11.9874 21.2589 9.95487
1 13.5732 22.063 10.7517
1 14.3669 21.2693 10.7517
1 14.2909 22.0611 9.93136
1 13.5275 21.2794 9.9692
1 15 20.4756 10.7517
1 15.7937 19.6819 10.7517
1 15.8239 20.4815 9.94869
1 15.0643 19.6746 9.9209
1 16.5874 20.4756 10.7517
1 17.3811 19.6819 10.7517
1 17.3897 20.4623 9.97159
1 16.6094 19.6786 9.92985
1 18.1748 20.4756 10.7517
1 18.9685 19.6819 10.7517
1 18.9708 20.4675 9.93352
1 18.1833 19.6837 9.95042
1 19.7622 20.4756 10.7517
1 20.5559 19.6819 10.7517
1 20.5455 20.4791 9.94983
1 19.7447 19.6806 9.96636
1 21.3496 20.4756 10.7517
1 22.1433 19.6819 10.7517
1 22.1704 20.4669 9.9633
1 21.3541 19.6843 9.9527
1 22.937 20.4756 10.7517
1 23.7307 19.6819 10.7517
1 23.7594 20.4927 9.9518
1 22.9477 19.6879 9.96495
1 24.5244 20.4756 10.7517
1 25.3181 19.6819 10.7517
1 25.3197 20.5094 9.98396
1 24.5154 19.7112 9.9649
1 26.1118 20.4756 10.7517
1 26.9055 19.6819 10.7517
1 26.9056 20.4763 9.96025
1 26.0852 19.688 9.97614
1 27.6992 20.4756 10.7517
1 28.4929 19.6819 10.7517
1 28.4929 20.4789 9.9552
1 27.7118 19.7053 9.95536
1 29.2866 20.4756 10.7517
1 0.08031 19.6819 10.7517
1 0.0673894 20.4794 9.95611
1 29.2647 19.6861 9.96627
1 0.874011 20.4756 10.7517
1 1.66771 19.6819 10.7517
1 1.68007 20.4868 9.95697
1 0.882776 19.6948 9.95907
1 2.46141 20.4756 10.7517
1 3.25511 19.6819 10.7517
1 3.2515 20.4899 9.9463
1 2.46262 19.6946 9.9528
1 4.04881 20.4756 10.7517
1 4.84251 19.6819 10.7517
1 4.85254 20.4733 9.96411
1 4.04229 19.6514 9.95509
1 5.63621 20.4756 10.7517
1 6.42991 19.6819 10.7517
1 6.43267 20.477 9.96516
1 5.63135 19.6877 9.95227
1 7.22361 20.4756 10.7517
1 8.01732 19.6819 10.7517
1 8.03947 20.4884 9.96072
1 7.22174 19.6878 9.93463
1 8.81102 20.4756 10.7517
1 9.60472 19.6819 10.7517
1 9.59345 20.4873 9.97542
1 8.82381 19.6682 9.96391
1 10.3984 20.4756 10.7517
1 11.1921 19.6819 10.7517
1 11.1852 20.4923 9.95916
1 10.4075 19.6929 9.97081
1 11.9858 20.4756 10.7517
1 12.7795 19.6819 10.7517
1 12.7546 20.4726 9.96004
1 11.974 19.6893 9.95464
1 13.5732 20.4756 10.7517
1 14.3669 19.6819 10.7517
1 14.3058 20.4983 9.91876
1 13.5748 19.6936 9.94599
1 15 18.8882 10.7517
1 15.7937 18.0945 10.7517
1 15.8202 18.9056 9.94284
1 15.0889 18.0829 9.90791
1 16.5874 18.8882 10.7517
1 17.3811 18.0945 10.7517
1 17.3802 18.9028 9.94668
1 16.5919 18.1224 9.95404
1 18.1748 18.8882 10.7517
1 18.9685 18.0945 10.7517
1 18.979 18.9029 9.96019
1 18.1557 18.113 9.95521
1 19.7622 18.8882 10.7517
1 20.5559 18.0945 10.7517
1 20.5528 18.8984 9.96506
1 19.7543 18.0776 9.95992
1 21.3496 18.8882 10.7517
1 22.1433 18.0945 10.7517
1 22.1463 18.8866 9.96269
1 21.3475 18.0967 9.93774
1 22.937 18.8882 10.7517
1 23.7307 18.0945 10.7517
1 23.7384 18.8823 9.95149
1 22.9503 18.0772 9.97655
1 24.5244 18.8882 10.7517
1 25.3181 18.0945 10.7517
1 25.3036 18.899 9.94811
1 24.5361 18.0813 9.95854
1 26.1118 18.8882 10.7517
1 26.9055 18.0945 10.7517
1 26.8921 18.9287 9.94672
1 26.1218 18.1031 9.95819
1 27.6992 18.8882 10.7517
1 28.4929 18.0945 10.7517
1 28.4936 18.8744 9.98247
1 27.6696 18.1147 9.96756
1 29.2866 18.8882 10.7517
1 0.08031 18.0945 10.7517
1 0.0579349 18.8729 9.96917
1 29.2977 18.0605 9.97625
1 0.874011 18.8882 10.7517
1 1.66771 18.0945 10.7517
1 1.67376 18.8828 9.96067
1 0.861749 18.1122 9.95244
1 2.46141 18.8882 10.7517
1 3.25511 18.0945 10.7517
1 3.25055 18.8737 9.94173
1 2.46473 18.1148 9.94587
1 4.04881 18.8882 10.7517
1 4.84251 18.0945 10.7517
1 4.86351 18.8814 9.9683
1 4.04904 18.1107 9.95343
1 5.63621 18.8882 10.7517
1 6.42991 18.0945 10.7517
1 6.41933 18.876 9.95662
1 5.62415 18.0833 9.96807
1 7.22361 18.8882 10.7517
1 8.01732 18.0945 10.7517
1 8.00047 18.9034 9.96701
1 7.22185 18.111 9.96998
1 8.81102 18.8882 10.7517
1 9.60472 18.0945 10.7517
1 9.59317 18.8778 9.96004
1 8.79731 18.0972 9.95255
1 10.3984 18.8882 10.7517
1 11.1921 18.0945 10.7517
1 11.2015 18.8996 9.93367
1 10.3864 18.0915 9.97726
1 11.9858 18.8882 10.7517
1 12.7795 18.0945 10.7517
1 12.7636 18.9043 9.95514
1 12.0031 18.0997 9.98915
1 13.5732 18.8882 10.7517
1 14.3669 18.0945 10.7517
1 14.303 18.8866 9.91552
1 13.5425 18.0903 9.95318
1 15 17.3008 10.7517
1 15.7937 16.5071 10.7517
1 15.8509 17.3274 9.94341
1 15.0714 16.5018 9.94034
1 16.5874 17.3008 10.7517
1 17.3811 16.5071 10.7517
1 17.401 17.3027 9.95038
1 16.609 16.5007 9.94105
1 18.1748 17.3008 10.7517
1 18.9685 16.5071 10.7517
1 18.955 17.3089 9.97571
1 18.1879 16.4827 9.95089
1 19.7622 17.3008 10.7517
1 20.5559 16.5071 10.7517
1 20.5669 17.2744 9.94628
1 19.777 16.4866 9.94387
1 21.3496 17.3008 10.7517
1 22.1433 16.5071 10.7517
1 22.1642 17.2929 9.94919
1 21.3695 16.5004 9.97561
1 22.937 17.3008 10.7517
1 23.7307 16.5071 10.7517
1 23.7323 17.3092 9.94469
1 22.9475 16.4933 9.95147
1 24.5244 17.3008 10.7517
1 25.3181 16.5071 10.7517
1 25.3407 17.2949 9.9696
1 24.5122 16.495 9.94558
1 26.1118 17.3008 10.7517
1 26.9055 16.5071 10.7517
1 26.9137 17.2692 9.96526
1 26.1228 16.5015 9.96471
1 27.6992 17.3008 10.7517
1 28.4929 16.5071 10.7517
1 28.5077 17.2668 9.96612
1 27.6963 16.5057 9.97185
1 29.2866 17.3008 10.7517
1 0.08031 16.5071 10.7517
1 0.0876498 17.2855 9.96592
1 29.2715 16.4977 9.97169
1 0.874011 17.3008 10.7517
1 1.66771 16.5071 10.7517
1 1.65754 17.3355 9.97922
1 0.888418 16.515 9.96829
1 2.46141 17.3008 10.7517
1 3.25511 16.5071 10.7517
1 3.27467 17.3169 9.94476
1 2.48054 16.479 9.93814
1 4.04881 17.3008 10.7517
1 4.84251 16.5071 10.7517
1 4.82612 17.3265 9.94425
1 4.03499 16.5107 9.95207
1 5.63621 17.3008 10.7517
1 6.42991 16.5071 10.7517
1 6.43696 17.3415 9.99065
1 5.62441 16.5317 9.95208
1 7.22361 17.3008 10.7517
1 8.01732 16.5071 10.7517
1 8.01922 17.315 9.96385
1 7.19272 16.4963 9.97355
1 8.81102 17.3008 10.7517
1 9.60472 16.5071 10.7517
1 9.57388 17.3248 9.95749
1 8.81299 16.5028 9.96059
1 10.3984 17.3008 10.7517
1 11.1921 16.5071 10.7517
1 11.1976 17.3172 9.97127
1 10.3902 16.5461 9.98069
1 11.9858 17.3008 10.7517
1 12.7795 16.5071 10.7517
1 12.7873 17.3202 9.96093
1 11.973 16.5141 9.97463
1 13.5732 17.3008 10.7517
1 14.3669 16.5071 10.7517
1 14.2974 17.3053 9.91524
1 13.5604 16.5174 9.93786
1 15 15.7134 10.7517
1 15.7937 14.9197 10.7517
1 15.8458 15.6974 9.93401
1 15.0687 14.9465 9.91907
1 16.5874 15.7134 10.7517
1 17.3811 14.9197 10.7517
1 17.4025 15.7018 9.95743
1 16.6383 14.9157 9.94206
1 18.1748 15.7134 10.7517
1 18.9685 14.9197 10.7517
1 18.9939 15.6906 9.94804
1 18.1478 14.9042 9.96993
1 19.7622 15.7134 10.7517
1 20.5559 14.9197 10.7517
1 20.5498 15.7242 9.928
1 19.7557 14.8992 9.95342
1 21.3496 15.7134 10.7517
1 22.1433 14.9197 10.7517
1 22.1261 15.714 9.95379
1 21.3488 14.9454 9.9574
1 22.937 15.7134 10.7517
1 23.7307 14.9197 10.7517
1 23.7246 15.7218 9.98632
1 22.9189 14.92 9.9532
1 24.5244 15.7134 10.7517
1 25.3181 14.9197 10.7517
1 25.3104 15.705 9.95617
1 24.5491 14.9206 9.95722
1 26.1118 15.7134 10.7517
1 26.9055 14.9197 10.7517
1 26.9031 15.6912 9.99092
1 26.1074 14.9135 9.95839
1 27.6992 15.7134 10.7517
1 28.4929 14.9197 10.7517
1 28.469 15.6865 9.96883
1 27.7135 14.8998 9.97474
1 29.2866 15.7134 10.7517
1 0.08031 14.9197 10.7517
1 0.0889595 15.7148 9.95714
1 29.2828 14.9218 9.99019
1 0.874011 15.7134 10.7517
1 1.66771 14.9197 10.7517
1 1.68431 15.7304 9.9346
1 0.865871 14.9273 9.97033
1 2.46141 15.7134 10.7517
1 3.25511 14.9197 10.7517
1 3.26649 15.7233 9.94196
1 2.47829 14.9537 9.97138
1 4.04881 15.7134 10.7517
1 4.84251 14.9197 10.7517
1 4.83279 15.7116 9.98192
1 4.0374 14.9276 9.96132
1 5.63621 15.7134 10.7517
1 6.42991 14.9197 10.7517
1 6.42368 15.7312 9.95122
1 5.63368 14.9259 9.95113
1 7.22361 15.7134 10.7517
1 8.01732 14.9197 10.7517
1 8.00661 15.7085 9.93133
1 7.19753 14.9115 9.94437
1 8.81102 15.7134 10.7517
1 9.60472 14.9197 10.7517
1 9.60617 15.7245 9.95012
1 8.81115 14.9041 9.98602
1 10.3984 15.7134 10.7517
1 11.1921 14.9197 10.7517
1 11.1727 15.7127 9.96368
1 10.3745 14.9247 9.9784
1 11.9858 15.7134 10.7517
1 12.7795 14.9197 10.7517
1 12.7756 15.733 9.9729
1 11.9777 14.927 9.97555
1 13.5732 15.7134 10.7517
1 14.3669 14.9197 10.7517
1 14.2966 15.7327 9.95798
1 13.5474 14.9078 9.96752
1 15 14.126 10.7517
1 15.7937 13.3323 10.7517
1 15.8104 14.1163 9.95955
1 15.0489 13.344 9.94431
1 16.5874 14.126 10.7517
1 17.3811 13.3323 10.7517
1 17.3838 14.0956 9.97641
1 16.5996 13.3257 9.96761
1 18.1748 14.126 10.7517
1 18.9685 13.3323 10.7517
1 18.972 14.1397 9.98841
1 18.1894 13.3388 9.95846
1 19.7622 14.126 10.7517
1 20.5559 13.3323 10.7517
1 20.5383 14.1507 9.97156
1 19.7425 13.3223 9.96102
1 21.3496 14.126 10.7517
1 22.1433 13.3323 10.7517
1 22.1419 14.1204 9.96553
1 21.3589 13.3468 9.97994
1 22.937 14.126 10.7517
1 23.7307 13.3323 10.7517
1 23.7132 14.1131 9.97004
1 22.9298 13.334 9.96645
1 24.5244 14.126 10.7517
1 25.3181 13.3323 10.7517
1 25.3296 14.1119 9.95498
1 24.5302 13.3388 9.96045
1 26.1118 14.126 10.7517
1 26.9055 13.3323 10.7517
1 26.9138 14.1082 9.95588
1 26.1277 13.3222 9.9571
1 27.6992 14.126 10.7517
1 28.4929 13.3323 10.7517
1 28.483 14.1198 9.98079
1 27.7172 13.3123 9.9419
1 29.2866 14.126 10.7517
1 0.08031 13.3323 10.7517
1 0.0820623 14.1232 9.97
1 29.2327 13.3279 9.95128
1 0.874011 14.126 10.7517
1 1.66771 13.3323 10.7517
1 1.64983 14.1196 9.94449
1 0.870705 13.3353 9.9549
1 2.46141 14.126 10.7517
1 3.25511 13.3323 10.7517
1 3.24444 14.1371 9.92865
1 2.47998 13.3281 9.94284
1 4.04881 14.126 10.7517
1 4.84251 13.3323 10.7517
1 4.84555 14.1136 9.9482
1 4.04896 13.3711 9.97086
1 5.63621 14.126 10.7517
1 6.42991 13.3323 10.7517
1 6.39932 14.1042 9.96663
1 5.63605 13.3556 9.97903
1 7.22361 14.126 10.7517
1 8.01732 13.3323 10.7517
1 8.03236 14.1373 9.96357
1 7.19845 13.337 9.95924
1 8.81102 14.126 10.7517
1 9.60472 13.3323 10.7517
1 9.62089 14.1395 9.97471
1 8.79333 13.3341 9.94823
1 10.3984 14.126 10.7517
1 11.1921 13.3323 10.7517
1 11.1799 14.1241 9.98717
1 10.3867 13.3365 9.95966
1 11.9858 14.126 10.7517
1 12.7795 13.3323 10.7517
1 12.7842 14.1343 9.94659
1 11.9913 13.358 9.93497
1 13.5732 14.126 10.7517
1 14.3669 13.3323 10.7517
1 14.2879 14.1619 9.89822
1 13.5606 13.3298 9.92601
1 15 12.5386 10.7517
1 15.7937 11.7449 10.7517
1 15.8397 12.5531 9.9556
1 15.0903 11.7102 9.92122
1 16.5874 12.5386 10.7517
1 17.3811 11.7449 10.7517
1 17.4042 12.5382 9.95572
1 16.611 11.7256 9.92685
1 18.1748 12.5386 10.7517
1 18.9685 11.7449 10.7517
1 18.9864 12.5451 9.93618
1 18.1749 11.7581 9.97316
1 19.7622 12.5386 10.7517
1 20.5559 11.7449 10.7517
1 20.5613 12.5447 9.95253
1 19.7534 11.7371 9.96691
1 21.3496 12.5386 10.7517
1 22.1433 11.7449 10.7517
1 22.1528 12.5456 9.96719
1 21.3492 11.7291 9.98525
1 22.937 12.5386 10.7517
1 23.7307 11.7449 10.7517
1 23.7356 12.5425 9.97561
1 22.9365 11.7422 9.96494
1 24.5244 12.5386 10.7517
1 25.3181 11.7449 10.7517
1 25.3338 12.543 9.9624
1 24.554 11.7413 9.96649
1 26.1118 12.5386 10.7517
1 26.9055 11.7449 10.7517
1 26.902 12.5405 9.9747
1 26.1089 11.7355 9.94353
1 27.6992 12.5386 10.7517
1 28.4929 11.7449 10.7517
1 28.4847 12.4972 9.95441
1 27.7009 11.7567 9.9631
1 29.2866 12.5386 10.7517
1 0.08031 11.7449 10.7517
1 0.0953638 12.55 9.98747
1 29.3153 11.7576 9.9763
1 0.874011 12.5386 10.7517
1 1.66771 11.7449 10.7517
1 1.67302 12.5336 9.96148
1 0.848859 11.7328 9.98242
1 2.46141 12.5386 10.7517
1 3.25511 11.7449 10.7517
1 3.25727 12.5359 9.957
1 2.46327 11.7357 9.96448
1 4.04881 12.5386 10.7517
1 4.84251 11.7449 10.7517
1 4.85012 12.5388 9.95126
1 4.06366 11.7379 9.97384
1 5.63621 12.5386 10.7517
1 6.42991 11.7449 10.7517
1 6.40917 12.5465 9.95756
1 5.63985 11.7511 9.96246
1 7.22361 12.5386 10.7517
1 8.01732 11.7449 10.7517
1 8.00813 12.5275 9.96623
1 7.22076 11.7469 9.95907
1 8.81102 12.5386 10.7517
1 9.60472 11.7449 10.7517
1 9.59582 12.5441 9.96206
1 8.80854 11.7492 9.97129
1 10.3984 12.5386 10.7517
1 11.1921 11.7449 10.7517
1 11.1973 12.5267 9.9429
1 10.3769 11.7699 9.93273
1 11.9858 12.5386 10.7517
1 12.7795 11.7449 10.7517
1 12.7839 12.5306 9.95168
1 11.9612 11.7227 9.96327
1 13.5732 12.5386 10.7517
1 14.3669 11.7449 10.7517
1 14.3155 12.5383 9.94034
1 13.5329 11.7397 9.94604
1 15 10.9512 10.7517
1 15.7937 10.1575 10.7517
1 15.828 10.9166 9.97585
1 15.0467 10.1415 9.91028
1 16.5874 10.9512 10.7517
1 17.3811 10.1575 10.7517
1 17.4139 10.9267 9.96159
1 16.6308 10.1288 9.94967
1 18.1748 10.9512 10.7517
1 18.9685 10.1575 10.7517
1 18.9854 10.9562 9.96842
1 18.1722 10.1545 9.95777
1 19.7622 10.9512 10.7517
1 20.5559 10.1575 10.7517
1 20.5437 10.9599 9.95017
1 19.7589 10.1787 9.99141
1 21.3496 10.9512 10.7517
1 22.1433 10.1575 10.7517
1 22.1577 10.9298 9.94288
1 21.3391 10.1493 9.97051
1 22.937 10.9512 10.7517
1 23.7307 10.1575 10.7517
1 23.7474 10.9486 9.957
1 22.9392 10.1672 9.97064
1 24.5244 10.9512 10.7517
1 25.3181 10.1575 10.7517
1 25.3147 10.9591 9.96631
1 24.5121 10.1587 9.9606
1 26.1118 10.9512 10.7517
1 26.9055 10.1575 10.7517
1 26.8908 10.9422 9.97372
1 26.0848 10.129 9.96523
1 27.6992 10.9512 10.7517
1 28.4929 10.1575 10.7517
1 28.4942 10.9697 9.9658
1 27.6962 10.1537 9.96969
1 29.2866 10.9512 10.7517
1 0.08031 10.1575 10.7517
1 0.0754463 10.9392 9.98438
1 29.2839 10.138 9.97608
1 0.874011 10.9512 10.7517
1 1.66771 10.1575 10.7517
1 1.64248 10.9421 9.96739
1 0.865197 10.1329 9.95629
1 2.46141 10.9512 10.7517
1 3.25511 10.1575 10.7517
1 3.28839 10.9625 9.95339
1 2.44412 10.1788 9.97701
1 4.04881 10.9512 10.7517
1 4.84251 10.1575 10.7517
1 4.84177 10.9406 9.97488
1 4.04898 10.1637 9.95622
1 5.63621 10.9512 10.7517
1 6.42991 10.1575 10.7517
1 6.45668 10.9328 9.97315
1 5.65188 10.1658 9.94706
1 7.22361 10.9512 10.7517
1 8.01732 10.1575 10.7517
1 8.01942 10.9428 9.95884
1 7.23282 10.1477 9.97083
1 8.81102 10.9512 10.7517
1 9.60472 10.1575 10.7517
1 9.6055 10.961 9.97276
1 8.79935 10.1477 9.96297
1 10.3984 10.9512 10.7517
1 11.1921 10.1575 10.7517
1 11.1608 10.9642 9.94952
1 10.3998 10.1339 9.94551
1 11.9858 10.9512 10.7517
1 12.7795 10.1575 10.7517
1 12.7649 10.9292 9.94074
1 11.969 10.1445 9.95407
1 13.5732 10.9512 10.7517
1 14.3669 10.1575 10.7517
1 14.2958 10.9471 9.93137
1 13.5776 10.1615 9.95564
1 15 9.36379 10.7517
1 15.7937 8.57009 10.7517
1 15.8078 9.34128 9.94411
1 15.0418 8.55626 9.94374
1 16.5874 9.36379 10.7517
1 17.3811 8.57009 10.7517
1 17.4081 9.35847 9.93971
1 16.6175 8.56861 9.94773
1 18.1748 9.36379 10.7517
1 18.9685 8.57009 10.7517
1 18.9855 9.36397 9.97703
1 18.1916 8.57895 9.93229
1 19.7622 9.36379 10.7517
1 20.5559 8.57009 10.7517
1 20.5662 9.3637 9.95478
1 19.7781 8.5761 9.941
1 21.3496 9.36379 10.7517
1 22.1433 8.57009 10.7517
1 22.1603 9.3664 9.94804
1 21.3692 8.5837 9.97193
1 22.937 9.36379 10.7517
1 23.7307 8.57009 10.7517
1 23.7384 9.36642 9.96339
1 22.9117 8.57094 9.94961
1 24.5244 9.36379 10.7517
1 25.3181 8.57009 10.7517
1 25.3122 9.35547 9.94951
1 24.5228 8.58364 9.95768
1 26.1118 9.36379 10.7517
1 26.9055 8.57009 10.7517
1 26.9162 9.36128 9.96335
1 26.1154 8.59053 9.95424
1 27.6992 9.36379 10.7517
1 28.4929 8.57009 10.7517
1 28.4789 9.37301 9.96596
1 27.6871 8.56417 9.96152
1 29.2866 9.36379 10.7517
1 0.08031 8.57009 10.7517
1 0.0696566 9.3465 9.93874
1 29.301 8.55661 9.97443
1 0.874011 9.36379 10.7517
1 1.66771 8.57009 10.7517
1 1.67247 9.39187 9.9588
1 0.862285 8.59588 9.95962
1 2.46141 9.36379 10.7517
1 3.25511 8.57009 10.7517
1 3.23464 9.36324 9.95484
1 2.4551 8.59727 9.97344
1 4.04881 9.36379 10.7517
1 4.84251 8.57009 10.7517
1 4.84159 9.39201 9.94205
1 4.04521 8.56355 9.94624
1 5.63621 9.36379 10.7517
1 6.42991 8.57009 10.7517
1 6.41309 9.34638 9.95368
1 5.62149 8.58296 9.93422
1 7.22361 9.36379 10.7517
1 8.01732 8.57009 10.7517
1 8.03501 9.36881 9.95474
1 7.2123 8.5633 9.95303
1 8.81102 9.36379 10.7517
1 9.60472 8.57009 10.7517
1 9.61202 9.35772 9.96264
1 8.81418 8.57018 9.96453
1 10.3984 9.36379 10.7517
1 11.1921 8.57009 10.7517
1 11.1815 9.35256 9.96378
1 10.3991 8.56482 9.94309
1 11.9858 9.36379 10.7517
1 12.7795 8.57009 10.7517
1 12.7696 9.36075 9.95362
1 11.9564 8.56038 9.93769
1 13.5732 9.36379 10.7517
1 14.3669 8.57009 10.7517
1 14.3052 9.35744 9.92059
1 13.5389 8.55974 9.95795
1 15 7.77639 10.7517
1 15.7937 6.98268 10.7517
1 15.7812 7.7836 9.97329
1 15.0625 6.97646 9.89419
1 16.5874 7.77639 10.7517
1 17.3811 6.98268 10.7517
1 17.4175 7.768 9.9326
1 16.602 7.00629 9.95145
1 18.1748 7.77639 10.7517
1 18.9685 6.98268 10.7517
1 18.9972 7.78655 9.95642
1 18.1968 6.9951 9.97325
1 19.7622 7.77639 10.7517
1 20.5559 6.98268 10.7517
1 20.568 7.78169 9.94337
1 19.7737 7.01707 9.97209
1 21.3496 7.77639 10.7517
1 22.1433 6.98268 10.7517
1 22.1491 7.79681 9.94269
1 21.3575 7.02155 9.95398
1 22.937 7.77639 10.7517
1 23.7307 6.98268 10.7517
1 23.7252 7.77063 9.94725
1 22.9349 6.9488 9.94523
1 24.5244 7.77639 10.7517
1 25.3181 6.98268 10.7517
1 25.303 7.74953 9.94047
1 24.5338 6.97777 9.94036
1 26.1118 7.77639 10.7517
1 26.9055 6.98268 10.7517
1 26.905 7.79117 9.9556
1 26.1187 6.97477 9.96602
1 27.6992 7.77639 10.7517
1 28.4929 6.98268 10.7517
1 28.5055 7.77633 9.98029
1 27.6828 6.97994 9.95264
1 29.2866 7.77639 10.7517
1 0.08031 6.98268 10.7517
1 0.0868683 7.78737 9.97134
1 29.3194 6.98331 9.98005
1 0.874011 7.77639 10.7517
1 1.66771 6.98268 10.7517
1 1.68415 7.81107 9.95355
1 0.877561 6.98772 9.92573
1 2.46141 7.77639 10.7517
1 3.25511 6.98268 10.7517
1 3.24398 7.7862 9.96971
1 2.46306 6.98829 9.93511
1 4.04881 7.77639 10.7517
1 4.84251 6.98268 10.7517
1 4.82356 7.77348 9.97137
1 4.04133 6.97133 9.92681
1 5.63621 7.77639 10.7517
1 6.42991 6.98268 10.7517
1 6.41372 7.75419 9.9292
1 5.62436 6.98243 9.96267
1 7.22361 7.77639 10.7517
1 8.01732 6.98268 10.7517
1 8.03158 7.77851 9.98242
1 7.25723 6.96377 9.96404
1 8.81102 7.77639 10.7517
1 9.60472 6.98268 10.7517
1 9.59471 7.78941 9.93877
1 8.81153 6.97555 9.95695
1 10.3984 7.77639 10.7517
1 11.1921 6.98268 10.7517
1 11.1796 7.78182 9.95915
1 10.3715 7.00039 9.97561
1 11.9858 7.77639 10.7517
1 12.7795 6.98268 10.7517
1 12.767 7.78699 9.92989
1 11.9713 7.02517 9.94113
1 13.5732 7.77639 10.7517
1 14.3669 6.98268 10.7517
1 14.2743 7.77416 9.93253
1 13.5431 6.96787 9.95224
1 15 6.18898 10.7517
1 15.7937 5.39528 10.7517
1 15.8336 6.18019 9.95267
1 15.0767 5.41486 9.92485
1 16.5874 6.18898 10.7517
1 17.3811 5.39528 10.7517
1 17.3982 6.20398 9.95028
1 16.6181 5.40469 9.95121
1 18.1748 6.18898 10.7517
1 18.9685 5.39528 10.7517
1 18.9783 6.19582 9.94698
1 18.1888 5.40127 9.98829
1 19.7622 6.18898 10.7517
1 20.5559 5.39528 10.7517
1 20.5558 6.21208 9.98683
1 19.7956 5.40741 9.94215
1 21.3496 6.18898 10.7517
1 22.1433 5.39528 10.7517
1 22.1578 6.18464 9.95805