12976
Atoms. Timestep: 4000000
1 7.5 7.10543e-15 15.2654
1 8.2937 29.2063 15.2654
1 8.31387 29.9244 14.4354
1 7.56909 29.1594 14.4269
1 9.0874 7.10543e-15 15.2654
1 9.8811 29.2063 15.2654
1 9.87831 29.9235 14.4413
1 9.09297 29.1754 14.4772
1 10.6748 7.10543e-15 15.2654
1 11.4685 29.2063 15.2654
1 11.4749 29.9383 14.4439
1 10.6946 29.1893 14.4689
1 12.2622 7.10543e-15 15.2654
1 13.0559 29.2063 15.2654
1 13.0689 29.9007 14.4137
1 12.2728 29.193 14.4552
1 13.8496 7.10543e-15 15.2654
1 14.6433 29.2063 15.2654
1 14.6484 29.9126 14.4581
1 13.8425 29.1868 14.4665
1 15.437 7.10543e-15 15.2654
1 16.2307 29.2063 15.2654
1 16.2476 29.9015 14.4279
1 15.4174 29.174 14.4538
1 17.0244 7.10543e-15 15.2654
1 17.8181 29.2063 15.2654
1 17.8318 29.9161 14.4546
1 17.0528 29.1479 14.4755
1 18.6118 7.10543e-15 15.2654
1 19.4055 29.2063 15.2654
1 19.4046 29.9423 14.4215
1 18.6274 29.1479 14.4596
1 20.1992 7.10543e-15 15.2654
1 20.9929 29.2063 15.2654
1 21.0126 29.9565 14.4478
1 20.2422 29.173 14.4686
1 21.7866 7.10543e-15 15.2654
1 22.5803 29.2063 15.2654
1 22.5582 29.9018 14.428
1 21.7795 29.1615 14.4729
1 23.374 7.10543e-15 15.2654
1 24.1677 29.2063 15.2654
1 24.1946 29.9105 14.4465
1 23.3827 29.1852 14.4525
1 24.9614 7.10543e-15 15.2654
1 25.7551 29.2063 15.2654
1 25.7622 29.9397 14.4453
1 24.9775 29.1743 14.4741
1 26.5488 7.10543e-15 15.2654
1 27.3425 29.2063 15.2654
1 27.3272 29.915 14.4246
1 26.5375 29.1625 14.4484
1 28.1362 7.10543e-15 15.2654
1 28.9299 29.2063 15.2654
1 28.9199 29.9523 14.4261
1 28.1476 29.1642 14.4559
1 29.7236 7.10543e-15 15.2654
1 0.517315 29.2063 15.2654
1 0.498791 29.9576 14.4473
1 29.7141 29.1918 14.4671
1 1.31102 7.10543e-15 15.2654
1 2.10472 29.2063 15.2654
1 2.09764 29.9272 14.4563
1 1.28057 29.2166 14.4755
1 2.89842 7.10543e-15 15.2654
1 3.69212 29.2063 15.2654
1 3.67859 29.9148 14.4419
1 2.88624 29.1503 14.4677
1 4.48582 7.10543e-15 15.2654
1 5.27952 29.2063 15.2654
1 5.21799 29.9445 14.414
1 4.46107 29.1815 14.4569
1 6.07322 7.10543e-15 15.2654
1 6.86692 29.2063 15.2654
1 6.78445 29.9321 14.395
1 6.03242 29.1881 14.4601
1 7.5 28.4126 15.2654
1 8.2937 27.6189 15.2654
1 8.30544 28.3982 14.4657
1 7.5549 27.6154 14.419
1 9.0874 28.4126 15.2654
1 9.8811 27.6189 15.2654
1 9.91073 28.4179 14.4793
1 9.09685 27.5814 14.4608
1 10.6748 28.4126 15.2654
1 11.4685 27.6189 15.2654
1 11.4892 28.3776 14.4731
1 10.691 27.5985 14.4847
1 12.2622 28.4126 15.2654
1 13.0559 27.6189 15.2654
1 13.0487 28.4021 14.4706
1 12.2647 27.5865 14.4926
1 13.8496 28.4126 15.2654
1 14.6433 27.6189 15.2654
1 14.6472 28.3848 14.4863
1 13.85 27.6175 14.4401
1 15.437 28.4126 15.2654
1 16.2307 27.6189 15.2654
1 16.2235 28.4178 14.4722
1 15.438 27.6247 14.477
1 17.0244 28.4126 15.2654
1 17.8181 27.6189 15.2654
1 17.8163 28.3898 14.4701
1 17.0084 27.5856 14.469
1 18.6118 28.4126 15.2654
1 19.4055 27.6189 15.2654
1 19.4177 28.4079 14.4847
1 18.6104 27.5916 14.4714
1 20.1992 28.4126 15.2654
1 20.9929 27.6189 15.2654
1 21.0173 28.378 14.4641
1 20.2028 27.603 14.4737
1 21.7866 28.4126 15.2654
1 22.5803 27.6189 15.2654
1 22.6041 28.4011 14.4531
1 21.8221 27.5968 14.4662
1 23.374 28.4126 15.2654
1 24.1677 27.6189 15.2654
1 24.1711 28.4087 14.4532
1 23.3689 27.6032 14.464
1 24.9614 28.4126 15.2654
1 25.7551 27.6189 15.2654
1 25.7638 28.386 14.4861
1 24.9632 27.6205 14.4813
1 26.5488 28.4126 15.2654
1 27.3425 27.6189 15.2654
1 27.3492 28.3958 14.4667
1 26.5811 27.6235 14.4799
1 28.1362 28.4126 15.2654
1 28.9299 27.6189 15.2654
1 28.9091 28.4196 14.4684
1 28.138 27.6087 14.4732
1 29.7236 28.4126 15.2654
1 0.517315 27.6189 15.2654
1 0.501122 28.4003 14.4848
1 29.7045 27.5996 14.4832
1 1.31102 28.4126 15.2654
1 2.10472 27.6189 15.2654
1 2.10363 28.4037 14.4575
1 1.29458 27.5987 14.4908
1 2.89842 28.4126 15.2654
1 3.69212 27.6189 15.2654
1 3.66915 28.3782 14.4624
1 2.89485 27.6121 14.4836
1 4.48582 28.4126 15.2654
1 5.27952 27.6189 15.2654
1 5.25805 28.4055 14.4612
1 4.48144 27.6161 14.4642
1 6.07322 28.4126 15.2654
1 6.86692 27.6189 15.2654
1 6.79256 28.3877 14.4487
1 6.02992 27.6129 14.4393
1 7.5 26.8252 15.2654
1 8.2937 26.0315 15.2654
1 8.29855 26.813 14.4684
1 7.55126 26.0351 14.4247
1 9.0874 26.8252 15.2654
1 9.8811 26.0315 15.2654
1 9.89805 26.8086 14.4909
1 9.08774 26.0341 14.491
1 10.6748 26.8252 15.2654
1 11.4685 26.0315 15.2654
1 11.4867 26.8074 14.4732
1 10.6885 26.0181 14.4508
1 12.2622 26.8252 15.2654
1 13.0559 26.0315 15.2654
1 13.0564 26.8121 14.4742
1 12.2648 26.0211 14.4764
1 13.8496 26.8252 15.2654
1 14.6433 26.0315 15.2654
1 14.6415 26.8046 14.473
1 13.8507 26.0386 14.4666
1 15.437 26.8252 15.2654
1 16.2307 26.0315 15.2654
1 16.221 26.8095 14.4558
1 15.4272 26.0288 14.4467
1 17.0244 26.8252 15.2654
1 17.8181 26.0315 15.2654
1 17.8298 26.7977 14.463
1 17.0348 26.0035 14.472
1 18.6118 26.8252 15.2654
1 19.4055 26.0315 15.2654
1 19.3902 26.7995 14.4661
1 18.6197 25.9958 14.4818
1 20.1992 26.8252 15.2654
1 20.9929 26.0315 15.2654
1 20.9956 26.8224 14.46
1 20.2122 26.0201 14.4845
1 21.7866 26.8252 15.2654
1 22.5803 26.0315 15.2654
1 22.5939 26.7864 14.466
1 21.7878 26.0121 14.4692
1 23.374 26.8252 15.2654
1 24.1677 26.0315 15.2654
1 24.1599 26.8283 14.4577
1 23.3533 26.0141 14.4548
1 24.9614 26.8252 15.2654
1 25.7551 26.0315 15.2654
1 25.7713 26.7988 14.4615
1 24.9698 26.0389 14.473
1 26.5488 26.8252 15.2654
1 27.3425 26.0315 15.2654
1 27.3514 26.7913 14.4885
1 26.5731 26.0252 14.4797
1 28.1362 26.8252 15.2654
1 28.9299 26.0315 15.2654
1 28.9187 26.8196 14.4778
1 28.1404 26.013 14.4734
1 29.7236 26.8252 15.2654
1 0.517315 26.0315 15.2654
1 0.515028 26.8242 14.4774
1 29.6948 26.0449 14.4705
1 1.31102 26.8252 15.2654
1 2.10472 26.0315 15.2654
1 2.1067 26.8332 14.4694
1 1.32645 26.0531 14.4584
1 2.89842 26.8252 15.2654
1 3.69212 26.0315 15.2654
1 3.6957 26.8189 14.4473
1 2.88453 26.0471 14.4528
1 4.48582 26.8252 15.2654
1 5.27952 26.0315 15.2654
1 5.24222 26.8272 14.4751
1 4.4636 26.0424 14.4654
1 6.07322 26.8252 15.2654
1 6.86692 26.0315 15.2654
1 6.78332 26.8034 14.436
1 6.03226 26.0422 14.4441
1 7.5 25.2378 15.2654
1 8.2937 24.4441 15.2654
1 8.30476 25.2618 14.4671
1 7.57083 24.4569 14.449
1 9.0874 25.2378 15.2654
1 9.8811 24.4441 15.2654
1 9.90038 25.2339 14.4547
1 9.08622 24.4439 14.4538
1 10.6748 25.2378 15.2654
1 11.4685 24.4441 15.2654
1 11.4728 25.2398 14.4682
1 10.6744 24.4285 14.481
1 12.2622 25.2378 15.2654
1 13.0559 24.4441 15.2654
1 13.0818 25.2407 14.4715
1 12.2525 24.4488 14.4755
1 13.8496 25.2378 15.2654
1 14.6433 24.4441 15.2654
1 14.6479 25.229 14.4839
1 13.8458 24.426 14.4701
1 15.437 25.2378 15.2654
1 16.2307 24.4441 15.2654
1 16.2264 25.2425 14.48
1 15.4386 24.4265 14.4533
1 17.0244 25.2378 15.2654
1 17.8181 24.4441 15.2654
1 17.8025 25.2197 14.4351
1 17.0433 24.4372 14.4793
1 18.6118 25.2378 15.2654
1 19.4055 24.4441 15.2654
1 19.4141 25.2195 14.466
1 18.6213 24.4477 14.4588
1 20.1992 25.2378 15.2654
1 20.9929 24.4441 15.2654
1 21.0022 25.2218 14.4557
1 20.2117 24.4407 14.4518
1 21.7866 25.2378 15.2654
1 22.5803 24.4441 15.2654
1 22.6028 25.192 14.4642
1 21.7844 24.4235 14.4742
1 23.374 25.2378 15.2654
1 24.1677 24.4441 15.2654
1 24.1696 25.218 14.4679
1 23.3933 24.4061 14.4621
1 24.9614 25.2378 15.2654
1 25.7551 24.4441 15.2654
1 25.7617 25.2597 14.4705
1 24.9828 24.4434 14.4706
1 26.5488 25.2378 15.2654
1 27.3425 24.4441 15.2654
1 27.339 25.2246 14.4789
1 26.5427 24.4669 14.4761
1 28.1362 25.2378 15.2654
1 28.9299 24.4441 15.2654
1 28.9043 25.2315 14.4761
1 28.1411 24.4413 14.4692
1 29.7236 25.2378 15.2654
1 0.517315 24.4441 15.2654
1 0.507411 25.2434 14.4748
1 29.7373 24.4343 14.5
1 1.31102 25.2378 15.2654
1 2.10472 24.4441 15.2654
1 2.08696 25.2234 14.4856
1 1.31597 24.4339 14.4557
1 2.89842 25.2378 15.2654
1 3.69212 24.4441 15.2654
1 3.68902 25.2593 14.4646
1 2.90627 24.4357 14.4749
1 4.48582 25.2378 15.2654
1 5.27952 24.4441 15.2654
1 5.24512 25.2459 14.4718
1 4.47049 24.4322 14.4646
1 6.07322 25.2378 15.2654
1 6.86692 24.4441 15.2654
1 6.77932 25.235 14.4459
1 6.02735 24.4449 14.4676
1 7.5 23.6504 15.2654
1 8.2937 22.8567 15.2654
1 8.30892 23.6356 14.443
1 7.5765 22.8373 14.4466
1 9.0874 23.6504 15.2654
1 9.8811 22.8567 15.2654
1 9.87708 23.6557 14.4684
1 9.09475 22.8492 14.4451
1 10.6748 23.6504 15.2654
1 11.4685 22.8567 15.2654
1 11.4561 23.656 14.4747
1 10.6605 22.8697 14.4762
1 12.2622 23.6504 15.2654
1 13.0559 22.8567 15.2654
1 13.0486 23.657 14.4825
1 12.2669 22.8514 14.4683
1 13.8496 23.6504 15.2654
1 14.6433 22.8567 15.2654
1 14.6372 23.6586 14.4696
1 13.8598 22.8648 14.4604
1 15.437 23.6504 15.2654
1 16.2307 22.8567 15.2654
1 16.2252 23.6538 14.4604
1 15.45 22.8424 14.4673
1 17.0244 23.6504 15.2654
1 17.8181 22.8567 15.2654
1 17.8327 23.648 14.4837
1 17.0265 22.8497 14.464
1 18.6118 23.6504 15.2654
1 19.4055 22.8567 15.2654
1 19.4146 23.6425 14.4789
1 18.6151 22.861 14.4764
1 20.1992 23.6504 15.2654
1 20.9929 22.8567 15.2654
1 21 23.6372 14.4425
1 20.1999 22.8486 14.4672
1 21.7866 23.6504 15.2654
1 22.5803 22.8567 15.2654
1 22.5796 23.6668 14.4403
1 21.793 22.8677 14.4719
1 23.374 23.6504 15.2654
1 24.1677 22.8567 15.2654
1 24.1788 23.6233 14.4565
1 23.3868 22.8289 14.4853
1 24.9614 23.6504 15.2654
1 25.7551 22.8567 15.2654
1 25.7567 23.6545 14.4633
1 24.985 22.8276 14.4641
1 26.5488 23.6504 15.2654
1 27.3425 22.8567 15.2654
1 27.3252 23.6675 14.4765
1 26.5515 22.8305 14.4634
1 28.1362 23.6504 15.2654
1 28.9299 22.8567 15.2654
1 28.9211 23.6637 14.4855
1 28.1161 22.8815 14.4772
1 29.7236 23.6504 15.2654
1 0.517315 22.8567 15.2654
1 0.551092 23.6337 14.4641
1 29.7281 22.8619 14.4758
1 1.31102 23.6504 15.2654
1 2.10472 22.8567 15.2654
1 2.08517 23.6237 14.4864
1 1.31495 22.869 14.4705
1 2.89842 23.6504 15.2654
1 3.69212 22.8567 15.2654
1 3.68927 23.6401 14.4435
1 2.88884 22.8556 14.4699
1 4.48582 23.6504 15.2654
1 5.27952 22.8567 15.2654
1 5.26168 23.6739 14.4527
1 4.47835 22.8374 14.4853
1 6.07322 23.6504 15.2654
1 6.86692 22.8567 15.2654
1 6.81798 23.6569 14.4522
1 6.019 22.8775 14.463
1 7.5 22.063 15.2654
1 8.2937 21.2693 15.2654
1 8.32042 22.0479 14.4776
1 7.56061 21.2513 14.4223
1 9.0874 22.063 15.2654
1 9.8811 21.2693 15.2654
1 9.88003 22.0484 14.4481
1 9.09395 21.2533 14.4635
1 10.6748 22.063 15.2654
1 11.4685 21.2693 15.2654
1 11.4484 22.0474 14.4608
1 10.6889 21.2661 14.4836
1 12.2622 22.063 15.2654
1 13.0559 21.2693 15.2654
1 13.0419 22.0713 14.4986
1 12.2507 21.2464 14.4687
1 13.8496 22.063 15.2654
1 14.6433 21.2693 15.2654
1 14.6302 22.06 14.457
1 13.8526 21.2891 14.4946
1 15.437 22.063 15.2654
1 16.2307 21.2693 15.2654
1 16.2411 22.0386 14.4788
1 15.4399 21.2627 14.4628
1 17.0244 22.063 15.2654
1 17.8181 21.2693 15.2654
1 17.8176 22.0534 14.4702
1 17.0233 21.257 14.4613
1 18.6118 22.063 15.2654
1 19.4055 21.2693 15.2654
1 19.4267 22.0626 14.4613
1 18.6071 21.257 14.5051
1 20.1992 22.063 15.2654
1 20.9929 21.2693 15.2654
1 21.0041 22.1 14.4887
1 20.202 21.2712 14.4741
1 21.7866 22.063 15.2654
1 22.5803 21.2693 15.2654
1 22.6106 22.0767 14.4967
1 21.803 21.2673 14.4717
1 23.374 22.063 15.2654
1 24.1677 21.2693 15.2654
1 24.1942 22.0605 14.4447
1 23.3797 21.2776 14.4893
1 24.9614 22.063 15.2654
1 25.7551 21.2693 15.2654
1 25.771 22.0388 14.442
1 24.9688 21.2745 14.4799
1 26.5488 22.063 15.2654
1 27.3425 21.2693 15.2654
1 27.3419 22.0709 14.4731
1 26.5758 21.2665 14.4695
1 28.1362 22.063 15.2654
1 28.9299 21.2693 15.2654
1 28.9339 22.0792 14.4819
1 28.177 21.2966 14.4606
1 29.7236 22.063 15.2654
1 0.517315 21.2693 15.2654
1 0.525767 22.0617 14.4738
1 29.7235 21.2906 14.4815
1 1.31102 22.063 15.2654
1 2.10472 21.2693 15.2654
1 2.11632 22.0631 14.4596
1 1.32206 21.2961 14.4612
1 2.89842 22.063 15.2654
1 3.69212 21.2693 15.2654
1 3.69602 22.0621 14.4733
1 2.87218 21.2928 14.4556
1 4.48582 22.063 15.2654
1 5.27952 21.2693 15.2654
1 5.24786 22.0499 14.4361
1 4.48048 21.2803 14.4665
1 6.07322 22.063 15.2654
1 6.86692 21.2693 15.2654
1 6.77935 22.0645 14.4516
1 6.03622 21.2411 14.4658
1 7.5 20.4756 15.2654
1 8.2937 19.6819 15.2654
1 8.32141 20.4824 14.4711
1 7.56217 19.6817 14.4283
1 9.0874 20.4756 15.2654
1 9.8811 19.6819 15.2654
1 9.88223 20.4726 14.4919
1 9.12282 19.6643 14.48
1 10.6748 20.4756 15.2654
1 11.4685 19.6819 15.2654
1 11.4818 20.4648 14.4614
1 10.6787 19.706 14.4599
1 12.2622 20.4756 15.2654
1 13.0559 19.6819 15.2654
1 13.043 20.4976 14.4845
1 12.2642 19.6942 14.458
1 13.8496 20.4756 15.2654
1 14.6433 19.6819 15.2654
1 14.6419 20.4897 14.4647
1 13.8584 19.6931 14.4609
1 15.437 20.4756 15.2654
1 16.2307 19.6819 15.2654
1 16.2462 20.4703 14.4855
1 15.4389 19.6787 14.4656
1 17.0244 20.4756 15.2654
1 17.8181 19.6819 15.2654
1 17.8165 20.4479 14.5051
1 17.0038 19.6891 14.4893
1 18.6118 20.4756 15.2654
1 19.4055 19.6819 15.2654
1 19.3992 20.4955 14.4758
1 18.6067 19.6636 14.4956
1 20.1992 20.4756 15.2654
1 20.9929 19.6819 15.2654
1 21.0039 20.4563 14.4862
1 20.1991 19.7014 14.4915
1 21.7866 20.4756 15.2654
1 22.5803 19.6819 15.2654
1 22.6063 20.4641 14.4794
1 21.7951 19.6753 14.4777
1 23.374 20.4756 15.2654
1 24.1677 19.6819 15.2654
1 24.1905 20.4925 14.4947
1 23.3657 19.6994 14.4971
1 24.9614 20.4756 15.2654
1 25.7551 19.6819 15.2654
1 25.7666 20.4859 14.466
1 24.9456 19.7099 14.4626
1 26.5488 20.4756 15.2654
1 27.3425 19.6819 15.2654
1 27.3641 20.497 14.4857
1 26.5622 19.678 14.4967
1 28.1362 20.4756 15.2654
1 28.9299 19.6819 15.2654
1 28.9465 20.4865 14.4636
1 28.1229 19.7124 14.4672
1 29.7236 20.4756 15.2654
1 0.517315 19.6819 15.2654
1 0.498633 20.5055 14.4687
1 29.7078 19.6887 14.4697
1 1.31102 20.4756 15.2654
1 2.10472 19.6819 15.2654
1 2.1093 20.4669 14.455
1 1.29852 19.6698 14.4623
1 2.89842 20.4756 15.2654
1 3.69212 19.6819 15.2654
1 3.69005 20.5043 14.4681
1 2.89882 19.6838 14.4964
1 4.48582 20.4756 15.2654
1 5.27952 19.6819 15.2654
1 5.26684 20.4571 14.4547
1 4.49701 19.6851 14.5134
1 6.07322 20.4756 15.2654
1 6.86692 19.6819 15.2654
1 6.80113 20.4711 14.4298
1 6.05054 19.6994 14.4495
1 7.5 18.8882 15.2654
1 8.2937 18.0945 15.2654
1 8.31724 18.8979 14.4762
1 7.56867 18.0905 14.4246
1 9.0874 18.8882 15.2654
1 9.8811 18.0945 15.2654
1 9.89859 18.8702 14.4754
1 9.0979 18.0983 14.427
1 10.6748 18.8882 15.2654
1 11.4685 18.0945 15.2654
1 11.4771 18.894 14.4737
1 10.687 18.0906 14.4738
1 12.2622 18.8882 15.2654
1 13.0559 18.0945 15.2654
1 13.0488 18.887 14.4733
1 12.2573 18.107 14.4679
1 13.8496 18.8882 15.2654
1 14.6433 18.0945 15.2654
1 14.6544 18.882 14.4718
1 13.8727 18.0854 14.4621
1 15.437 18.8882 15.2654
1 16.2307 18.0945 15.2654
1 16.2358 18.8991 14.4916
1 15.4604 18.0718 14.4672
1 17.0244 18.8882 15.2654
1 17.8181 18.0945 15.2654
1 17.8151 18.8942 14.4783
1 17.0214 18.1097 14.4747
1 18.6118 18.8882 15.2654
1 19.4055 18.0945 15.2654
1 19.444 18.9058 14.502
1 18.624 18.1159 14.4649
1 20.1992 18.8882 15.2654
1 20.9929 18.0945 15.2654
1 21.0063 18.8858 14.4795
1 20.1917 18.0804 14.4761
1 21.7866 18.8882 15.2654
1 22.5803 18.0945 15.2654
1 22.5885 18.8743 14.4802
1 21.7982 18.0816 14.4875
1 23.374 18.8882 15.2654
1 24.1677 18.0945 15.2654
1 24.158 18.8954 14.4752
1 23.3678 18.0885 14.4699
1 24.9614 18.8882 15.2654
1 25.7551 18.0945 15.2654
1 25.7508 18.9088 14.4769
1 24.9516 18.1083 14.4813
1 26.5488 18.8882 15.2654
1 27.3425 18.0945 15.2654
1 27.3504 18.8911 14.4999
1 26.5586 18.0991 14.4766
1 28.1362 18.8882 15.2654
1 28.9299 18.0945 15.2654
1 28.9018 18.8902 14.4933
1 28.1434 18.0916 14.483
1 29.7236 18.8882 15.2654
1 0.517315 18.0945 15.2654
1 0.498056 18.8788 14.4634
1 29.7055 18.0989 14.4775
1 1.31102 18.8882 15.2654
1 2.10472 18.0945 15.2654
1 2.10248 18.8879 14.455
1 1.31355 18.1309 14.4787
1 2.89842 18.8882 15.2654
1 3.69212 18.0945 15.2654
1 3.70102 18.8868 14.4781
1 2.91702 18.1055 14.4941
1 4.48582 18.8882 15.2654
1 5.27952 18.0945 15.2654
1 5.28049 18.8861 14.4941
1 4.46805 18.1152 14.4783
1 6.07322 18.8882 15.2654
1 6.86692 18.0945 15.2654
1 6.77768 18.8941 14.455
1 6.0366 18.0854 14.4625
1 7.5 17.3008 15.2654
1 8.2937 16.5071 15.2654
1 8.32815 17.3048 14.49
1 7.58679 16.5053 14.4511
1 9.0874 17.3008 15.2654
1 9.8811 16.5071 15.2654
1 9.90535 17.2888 14.4531
1 9.12813 16.5229 14.4509
1 10.6748 17.3008 15.2654
1 11.4685 16.5071 15.2654
1 11.4751 17.299 14.4572
1 10.6609 16.5193 14.4826
1 12.2622 17.3008 15.2654
1 13.0559 16.5071 15.2654
1 13.0632 17.2824 14.4558
1 12.2705 16.509 14.445
1 13.8496 17.3008 15.2654
1 14.6433 16.5071 15.2654
1 14.6497 17.328 14.4653
1 13.8393 16.4939 14.4868
1 15.437 17.3008 15.2654
1 16.2307 16.5071 15.2654
1 16.2486 17.299 14.454
1 15.4226 16.4943 14.4763
1 17.0244 17.3008 15.2654
1 17.8181 16.5071 15.2654
1 17.8429 17.2939 14.4902
1 17.0171 16.4875 14.4656
1 18.6118 17.3008 15.2654
1 19.4055 16.5071 15.2654
1 19.4123 17.303 14.4855
1 18.6092 16.4847 14.4769
1 20.1992 17.3008 15.2654
1 20.9929 16.5071 15.2654
1 20.9835 17.2976 14.4757
1 20.226 16.4998 14.4986
1 21.7866 17.3008 15.2654
1 22.5803 16.5071 15.2654
1 22.5838 17.2946 14.4745
1 21.7879 16.4887 14.4813
1 23.374 17.3008 15.2654
1 24.1677 16.5071 15.2654
1 24.1657 17.3037 14.4756
1 23.3648 16.4969 14.4575
1 24.9614 17.3008 15.2654
1 25.7551 16.5071 15.2654
1 25.7431 17.2947 14.5065
1 24.9522 16.5206 14.4804
1 26.5488 17.3008 15.2654
1 27.3425 16.5071 15.2654
1 27.3514 17.2839 14.4933
1 26.5523 16.5059 14.4881
1 28.1362 17.3008 15.2654
1 28.9299 16.5071 15.2654
1 28.9445 17.2909 14.4609
1 28.12 16.5097 14.4893
1 29.7236 17.3008 15.2654
1 0.517315 16.5071 15.2654
1 0.496033 17.3301 14.4814
1 29.7141 16.5156 14.4735
1 1.31102 17.3008 15.2654
1 2.10472 16.5071 15.2654
1 2.11109 17.315 14.4835
1 1.31653 16.5059 14.4593
1 2.89842 17.3008 15.2654
1 3.69212 16.5071 15.2654
1 3.70532 17.3111 14.4694
1 2.90431 16.5011 14.4715
1 4.48582 17.3008 15.2654
1 5.27952 16.5071 15.2654
1 5.25159 17.3413 14.4823
1 4.46575 16.5013 14.4653
1 6.07322 17.3008 15.2654
1 6.86692 16.5071 15.2654
1 6.80691 17.312 14.4332
1 6.03323 16.51 14.4787
1 7.5 15.7134 15.2654
1 8.2937 14.9197 15.2654
1 8.34482 15.7203 14.4657
1 7.54602 14.8955 14.447
1 9.0874 15.7134 15.2654
1 9.8811 14.9197 15.2654
1 9.88263 15.7088 14.4572
1 9.09514 14.9096 14.4607
1 10.6748 15.7134 15.2654
1 11.4685 14.9197 15.2654
1 11.4748 15.7078 14.4539
1 10.6832 14.9152 14.4763
1 12.2622 15.7134 15.2654
1 13.0559 14.9197 15.2654
1 13.0542 15.7237 14.4946
1 12.2749 14.9215 14.4808
1 13.8496 15.7134 15.2654
1 14.6433 14.9197 15.2654
1 14.6531 15.7124 14.495
1 13.8641 14.8938 14.4527
1 15.437 15.7134 15.2654
1 16.2307 14.9197 15.2654
1 16.2454 15.7213 14.4696
1 15.4534 14.9216 14.4676
1 17.0244 15.7134 15.2654
1 17.8181 14.9197 15.2654
1 17.8264 15.7026 14.4871
1 17.0351 14.9095 14.4782
1 18.6118 15.7134 15.2654
1 19.4055 14.9197 15.2654
1 19.422 15.7113 14.4784
1 18.6247 14.8995 14.4669
1 20.1992 15.7134 15.2654
1 20.9929 14.9197 15.2654
1 20.9909 15.722 14.4705
1 20.1861 14.9402 14.4775
1 21.7866 15.7134 15.2654
1 22.5803 14.9197 15.2654
1 22.5638 15.7303 14.5001
1 21.7646 14.9588 14.457
1 23.374 15.7134 15.2654
1 24.1677 14.9197 15.2654
1 24.1692 15.7429 14.4981
1 23.3989 14.9335 14.4977
1 24.9614 15.7134 15.2654
1 25.7551 14.9197 15.2654
1 25.7484 15.7033 14.4942
1 24.9476 14.9352 14.499
1 26.5488 15.7134 15.2654
1 27.3425 14.9197 15.2654
1 27.3384 15.7113 14.468
1 26.5399 14.9089 14.4903
1 28.1362 15.7134 15.2654
1 28.9299 14.9197 15.2654
1 28.9234 15.6987 14.4684
1 28.1362 14.8911 14.4979
1 29.7236 15.7134 15.2654
1 0.517315 14.9197 15.2654
1 0.528434 15.7255 14.4629
1 29.7253 14.9324 14.4763
1 1.31102 15.7134 15.2654
1 2.10472 14.9197 15.2654
1 2.09013 15.743 14.4683
1 1.30527 14.9372 14.4834
1 2.89842 15.7134 15.2654
1 3.69212 14.9197 15.2654
1 3.66544 15.7008 14.4828
1 2.8783 14.9367 14.4555
1 4.48582 15.7134 15.2654
1 5.27952 14.9197 15.2654
1 5.2678 15.7079 14.4982
1 4.48589 14.9103 14.4511
1 6.07322 15.7134 15.2654
1 6.86692 14.9197 15.2654
1 6.77653 15.6964 14.4355
1 6.01672 14.9215 14.4647
1 7.5 14.126 15.2654
1 8.2937 13.3323 15.2654
1 8.32443 14.1423 14.4773
1 7.57733 13.3444 14.4294
1 9.0874 14.126 15.2654
1 9.8811 13.3323 15.2654
1 9.86951 14.1092 14.4764
1 9.08145 13.3459 14.4698
1 10.6748 14.126 15.2654
1 11.4685 13.3323 15.2654
1 11.4834 14.1358 14.4783
1 10.6968 13.3346 14.4644
1 12.2622 14.126 15.2654
1 13.0559 13.3323 15.2654
1 13.0651 14.1407 14.4517
1 12.2847 13.3331 14.4857
1 13.8496 14.126 15.2654
1 14.6433 13.3323 15.2654
1 14.6423 14.1061 14.4792
1 13.8524 13.3136 14.4786
1 15.437 14.126 15.2654
1 16.2307 13.3323 15.2654
1 16.2324 14.0959 14.4726
1 15.4282 13.3217 14.4833
1 17.0244 14.126 15.2654
1 17.8181 13.3323 15.2654
1 17.8098 14.1348 14.4783
1 17.018 13.3341 14.4585
1 18.6118 14.126 15.2654
1 19.4055 13.3323 15.2654
1 19.4229 14.1447 14.4506
1 18.5962 13.3429 14.4954
1 20.1992 14.126 15.2654
1 20.9929 13.3323 15.2654
1 20.9545 14.1509 14.4651
1 20.1968 13.3279 14.4828
1 21.7866 14.126 15.2654
1 22.5803 13.3323 15.2654
1 22.5775 14.1492 14.4844
1 21.793 13.3696 14.4884
1 23.374 14.126 15.2654
1 24.1677 13.3323 15.2654
1 24.1832 14.1271 14.4602
1 23.3749 13.3609 14.4954
1 24.9614 14.126 15.2654
1 25.7551 13.3323 15.2654
1 25.752 14.1317 14.4782
1 24.9544 13.3409 14.4823
1 26.5488 14.126 15.2654
1 27.3425 13.3323 15.2654
1 27.3236 14.1323 14.4564
1 26.5489 13.3252 14.4654
1 28.1362 14.126 15.2654
1 28.9299 13.3323 15.2654
1 28.9359 14.1386 14.4745
1 28.1167 13.3255 14.4787
1 29.7236 14.126 15.2654
1 0.517315 13.3323 15.2654
1 0.515994 14.1188 14.4787
1 29.7078 13.3507 14.4673
1 1.31102 14.126 15.2654
1 2.10472 13.3323 15.2654
1 2.08894 14.1047 14.4365
1 1.30395 13.3454 14.4755
1 2.89842 14.126 15.2654
1 3.69212 13.3323 15.2654
1 3.65988 14.1065 14.4547
1 2.91164 13.3201 14.5156
1 4.48582 14.126 15.2654
1 5.27952 13.3323 15.2654
1 5.26237 14.1118 14.4751
1 4.46009 13.3608 14.4619
1 6.07322 14.126 15.2654
1 6.86692 13.3323 15.2654
1 6.80095 14.1235 14.4587
1 6.04339 13.3385 14.4836
1 7.5 12.5386 15.2654
1 8.2937 11.7449 15.2654
1 8.31493 12.5436 14.4714
1 7.56053 11.7451 14.442
1 9.0874 12.5386 15.2654
1 9.8811 11.7449 15.2654
1 9.88371 12.5467 14.4731
1 9.08415 11.7414 14.4525
1 10.6748 12.5386 15.2654
1 11.4685 11.7449 15.2654
1 11.4706 12.5296 14.4562
1 10.6766 11.7605 14.4567
1 12.2622 12.5386 15.2654
1 13.0559 11.7449 15.2654
1 13.0686 12.5286 14.4727
1 12.2438 11.7448 14.5074
1 13.8496 12.5386 15.2654
1 14.6433 11.7449 15.2654
1 14.6737 12.5592 14.484
1 13.8703 11.7443 14.4734
1 15.437 12.5386 15.2654
1 16.2307 11.7449 15.2654
1 16.2355 12.5256 14.4608
1 15.4328 11.7152 14.4704
1 17.0244 12.5386 15.2654
1 17.8181 11.7449 15.2654
1 17.8092 12.5229 14.4753
1 17.0152 11.7369 14.4643
1 18.6118 12.5386 15.2654
1 19.4055 11.7449 15.2654
1 19.4026 12.5487 14.4928
1 18.5914 11.766 14.4769
1 20.1992 12.5386 15.2654
1 20.9929 11.7449 15.2654
1 21.0014 12.5352 14.476
1 20.1993 11.7163 14.4426
1 21.7866 12.5386 15.2654
1 22.5803 11.7449 15.2654
1 22.6085 12.5582 14.5196
1 21.79 11.7633 14.489
1 23.374 12.5386 15.2654
1 24.1677 11.7449 15.2654
1 24.1594 12.5452 14.4778
1 23.3919 11.7376 14.4686
1 24.9614 12.5386 15.2654
1 25.7551 11.7449 15.2654
1 25.7498 12.5362 14.497
1 24.9704 11.7309 14.4695
1 26.5488 12.5386 15.2654
1 27.3425 11.7449 15.2654
1 27.3359 12.5177 14.4892
1 26.5373 11.7334 14.4801
1 28.1362 12.5386 15.2654
1 28.9299 11.7449 15.2654
1 28.9193 12.5431 14.4806
1 28.1727 11.76 14.4844
1 29.7236 12.5386 15.2654
1 0.517315 11.7449 15.2654
1 0.504961 12.5404 14.4586
1 29.7152 11.7637 14.4792
1 1.31102 12.5386 15.2654
1 2.10472 11.7449 15.2654
1 2.10294 12.5374 14.4648
1 1.31572 11.7375 14.4903
1 2.89842 12.5386 15.2654
1 3.69212 11.7449 15.2654
1 3.68919 12.5254 14.4699
1 2.89145 11.7385 14.4779
1 4.48582 12.5386 15.2654
1 5.27952 11.7449 15.2654
1 5.2507 12.5354 14.4707
1 4.48668 11.7455 14.4567
1 6.07322 12.5386 15.2654
1 6.86692 11.7449 15.2654
1 6.7869 12.5456 14.4576
1 6.03815 11.7479 14.4607
1 7.5 10.9512 15.2654
1 8.2937 10.1575 15.2654
1 8.30738 10.9629 14.4762
1 7.55087 10.1433 14.4328
1 9.0874 10.9512 15.2654
1 9.8811 10.1575 15.2654
1 9.8699 10.9598 14.4822
1 9.10355 10.153 14.4655
1 10.6748 10.9512 15.2654
1 11.4685 10.1575 15.2654
1 11.4451 10.9655 14.4659
1 10.6783 10.1439 14.4543
1 12.2622 10.9512 15.2654
1 13.0559 10.1575 15.2654
1 13.048 10.939 14.4851
1 12.2573 10.1697 14.4859
1 13.8496 10.9512 15.2654
1 14.6433 10.1575 15.2654
1 14.6654 10.9253 14.4675
1 13.855 10.1468 14.4734
1 15.437 10.9512 15.2654
1 16.2307 10.1575 15.2654
1 16.2607 10.9347 14.4856
1 15.4537 10.1376 14.472
1 17.0244 10.9512 15.2654
1 17.8181 10.1575 15.2654
1 17.8389 10.9542 14.477
1 17.0408 10.1518 14.4717
1 18.6118 10.9512 15.2654
1 19.4055 10.1575 15.2654
1 19.4217 10.9704 14.479
1 18.6153 10.1602 14.5003
1 20.1992 10.9512 15.2654
1 20.9929 10.1575 15.2654
1 20.9907 10.9531 14.4886
1 20.1845 10.1693 14.5004
1 21.7866 10.9512 15.2654
1 22.5803 10.1575 15.2654
1 22.556 10.9409 14.4648
1 21.7868 10.1575 14.4848
1 23.374 10.9512 15.2654
1 24.1677 10.1575 15.2654
1 24.1785 10.9621 14.4693
1 23.3677 10.1657 14.4778
1 24.9614 10.9512 15.2654
1 25.7551 10.1575 15.2654
1 25.7525 10.9388 14.4546
1 24.9562 10.15 14.4656
1 26.5488 10.9512 15.2654
1 27.3425 10.1575 15.2654
1 27.3512 10.9641 14.4985
1 26.5602 10.1473 14.4665
1 28.1362 10.9512 15.2654
1 28.9299 10.1575 15.2654
1 28.926 10.9655 14.4643
1 28.1298 10.1403 14.4841
1 29.7236 10.9512 15.2654
1 0.517315 10.1575 15.2654
1 0.498139 10.9386 14.4757
1 29.7254 10.1426 14.4832
1 1.31102 10.9512 15.2654
1 2.10472 10.1575 15.2654
1 2.10061 10.9486 14.4701
1 1.28556 10.154 14.4821
1 2.89842 10.9512 15.2654
1 3.69212 10.1575 15.2654
1 3.6951 10.9506 14.4895
1 2.85728 10.1594 14.4808
1 4.48582 10.9512 15.2654
1 5.27952 10.1575 15.2654
1 5.24649 10.9352 14.4719
1 4.46921 10.1495 14.4816
1 6.07322 10.9512 15.2654
1 6.86692 10.1575 15.2654
1 6.80841 10.9305 14.4442
1 6.0508 10.1599 14.4506
1 7.5 9.36379 15.2654
1 8.2937 8.57009 15.2654
1 8.32661 9.36064 14.4538
1 7.57208 8.57566 14.4404
1 9.0874 9.36379 15.2654
1 9.8811 8.57009 15.2654
1 9.88732 9.35758 14.479
1 9.12757 8.57927 14.45
1 10.6748 9.36379 15.2654
1 11.4685 8.57009 15.2654
1 11.4609 9.37519 14.4747
1 10.6917 8.55815 14.4803
1 12.2622 9.36379 15.2654
1 13.0559 8.57009 15.2654
1 13.0557 9.32903 14.4773
1 12.269 8.57213 14.471
1 13.8496 9.36379 15.2654
1 14.6433 8.57009 15.2654
1 14.6565 9.33813 14.4677
1 13.8455 8.56026 14.4695
1 15.437 9.36379 15.2654
1 16.2307 8.57009 15.2654
1 16.2423 9.35668 14.481
1 15.4443 8.55612 14.5029
1 17.0244 9.36379 15.2654
1 17.8181 8.57009 15.2654
1 17.8233 9.36288 14.4918
1 17.0429 8.56505 14.4585
1 18.6118 9.36379 15.2654
1 19.4055 8.57009 15.2654
1 19.411 9.35834 14.5002
1 18.6131 8.56157 14.4558
1 20.1992 9.36379 15.2654
1 20.9929 8.57009 15.2654
1 21.0077 9.36617 14.4855
1 20.2177 8.59034 14.4814
1 21.7866 9.36379 15.2654
1 22.5803 8.57009 15.2654
1 22.5836 9.38133 14.4744
1 21.7972 8.56691 14.4724
1 23.374 9.36379 15.2654
1 24.1677 8.57009 15.2654
1 24.1746 9.36714 14.4744
1 23.3784 8.59909 14.4534
1 24.9614 9.36379 15.2654
1 25.7551 8.57009 15.2654
1 25.7714 9.34273 14.4778
1 24.972 8.58367 14.4725
1 26.5488 9.36379 15.2654
1 27.3425 8.57009 15.2654
1 27.3522 9.3672 14.4913
1 26.5487 8.57398 14.4808
1 28.1362 9.36379 15.2654
1 28.9299 8.57009 15.2654
1 28.9329 9.36624 14.4803
1 28.164 8.5818 14.4658
1 29.7236 9.36379 15.2654
1 0.517315 8.57009 15.2654
1 0.505441 9.36616 14.4512
1 29.7233 8.59174 14.4958
1 1.31102 9.36379 15.2654
1 2.10472 8.57009 15.2654
1 2.1042 9.34949 14.4642
1 1.28041 8.5827 14.4773
1 2.89842 9.36379 15.2654
1 3.69212 8.57009 15.2654
1 3.678 9.38969 14.4981
1 2.89323 8.55786 14.4876
1 4.48582 9.36379 15.2654
1 5.27952 8.57009 15.2654
1 5.25355 9.3503 14.471
1 4.47248 8.54715 14.4856
1 6.07322 9.36379 15.2654
1 6.86692 8.57009 15.2654
1 6.79995 9.3468 14.4456
1 6.05978 8.57261 14.4504
1 7.5 7.77639 15.2654
1 8.2937 6.98268 15.2654
1 8.32411 7.8036 14.4612
1 7.60726 6.98843 14.4429
1 9.0874 7.77639 15.2654
1 9.8811 6.98268 15.2654
1 9.89014 7.79755 14.4628
1 9.09499 6.99955 14.4707
1 10.6748 7.77639 15.2654
1 11.4685 6.98268 15.2654
1 11.4668 7.79364 14.4467
1 10.6663 7.00657 14.4794
1 12.2622 7.77639 15.2654
1 13.0559 6.98268 15.2654
1 13.0535 7.79653 14.5031
1 12.28 7.0078 14.469
1 13.8496 7.77639 15.2654
1 14.6433 6.98268 15.2654
1 14.6325 7.7687 14.4752
1 13.8399 6.97573 14.4737
1 15.437 7.77639 15.2654
1 16.2307 6.98268 15.2654
1 16.2263 7.76882 14.4836
1 15.4551 6.97475 14.4857
1 17.0244 7.77639 15.2654
1 17.8181 6.98268 15.2654
1 17.8428 7.77976 14.4514
1 17.0218 7.0223 14.462
1 18.6118 7.77639 15.2654
1 19.4055 6.98268 15.2654
1 19.4286 7.78732 14.4554
1 18.6303 7.00398 14.4575
1 20.1992 7.77639 15.2654
1 20.9929 6.98268 15.2654
1 21.0029 7.78887 14.4574
1 20.1935 7.01398 14.4869
1 21.7866 7.77639 15.2654
1 22.5803 6.98268 15.2654
1 22.5707 7.79254 14.4674
1 21.7461 6.96969 14.4482
1 23.374 7.77639 15.2654
1 24.1677 6.98268 15.2654
1 24.1455 7.77999 14.4671
1 23.3628 6.97028 14.4578
1 24.9614 7.77639 15.2654
1 25.7551 6.98268 15.2654
1 25.7587 7.76442 14.4661
1 24.9702 6.97149 14.4784
1 26.5488 7.77639 15.2654
1 27.3425 6.98268 15.2654
1 27.341 7.78426 14.4744
1 26.5472 6.97873 14.4828
1 28.1362 7.77639 15.2654
1 28.9299 6.98268 15.2654
1 28.9394 7.78264 14.4748
1 28.1319 6.99127 14.4519
1 29.7236 7.77639 15.2654
1 0.517315 6.98268 15.2654
1 0.505768 7.76613 14.463
1 29.7184 6.97898 14.4793
1 1.31102 7.77639 15.2654
1 2.10472 6.98268 15.2654
1 2.10376 7.77714 14.4682
1 1.30424 6.99596 14.4845
1 2.89842 7.77639 15.2654
1 3.69212 6.98268 15.2654
1 3.68033 7.75645 14.4796
1 2.90501 6.97328 14.4822
1 4.48582 7.77639 15.2654
1 5.27952 6.98268 15.2654
1 5.28116 7.73733 14.4589
1 4.473 6.98244 14.4545
1 6.07322 7.77639 15.2654
1 6.86692 6.98268 15.2654
1 6.81315 7.7776 14.4512
1 6.05675 6.97104 14.4645
1 7.5 6.18898 15.2654
1 8.2937 5.39528 15.2654
1 8.34133 6.19273 14.4875
1 7.60955 5.39445 14.434
1 9.0874 6.18898 15.2654
1 9.8811 5.39528 15.2654
1 9.88891 6.19371 14.4736
1 9.09044 5.38643 14.4547
1 10.6748 6.18898 15.2654
1 11.4685 5.39528 15.2654
1 11.5008 6.21661 14.4841
1 10.6818 5.38531 14.4582
1 12.2622 6.18898 15.2654
1 13.0559 5.39528 15.2654
1 13.0475 6.19045 14.4958
1 12.2684 5.37655 14.4753
1 13.8496 6.18898 15.2654
1 14.6433 5.39528 15.2654
1 14.6151 6.1846 14.487
1 13.8569 5.41045 14.4806
1 15.437 6.18898 15.2654
1 16.2307 5.39528 15.2654
1 16.2405 6.19403 14.4441