9376
Atoms. Timestep: 4000000
1 30 3.55271e-15 12.1389
1 0.793701 29.2063 12.1389
1 0.831748 29.9078 11.2755
1 0.0393539 29.1578 11.3234
1 1.5874 3.55271e-15 12.1389
1 2.3811 29.2063 12.1389
1 2.40642 29.9486 11.3103
1 1.61486 29.2018 11.318
1 3.1748 3.55271e-15 12.1389
1 3.9685 29.2063 12.1389
1 4.00042 29.9479 11.3209
1 3.18706 29.2198 11.3472
1 4.7622 3.55271e-15 12.1389
1 5.5559 29.2063 12.1389
1 5.56989 29.9225 11.3147
1 4.78433 29.1764 11.3392
1 6.3496 3.55271e-15 12.1389
1 7.1433 29.2063 12.1389
1 7.13876 29.9358 11.3101
1 6.36578 29.1904 11.3282
1 7.93701 3.55271e-15 12.1389
1 8.73071 29.2063 12.1389
1 8.7253 29.9459 11.3298
1 7.94301 29.1844 11.348
1 9.52441 3.55271e-15 12.1389
1 10.3181 29.2063 12.1389
1 10.3242 29.9341 11.326
1 9.51761 29.169 11.3619
1 11.1118 3.55271e-15 12.1389
1 11.9055 29.2063 12.1389
1 11.8919 29.9216 11.3004
1 11.0935 29.1555 11.3456
1 12.6992 3.55271e-15 12.1389
1 13.4929 29.2063 12.1389
1 13.5067 29.9224 11.3137
1 12.721 29.2157 11.3508
1 14.2866 3.55271e-15 12.1389
1 15.0803 29.2063 12.1389
1 15.0747 29.9515 11.313
1 14.2953 29.191 11.311
1 15.874 3.55271e-15 12.1389
1 16.6677 29.2063 12.1389
1 16.6735 29.9162 11.3114
1 15.8577 29.2003 11.3369
1 17.4614 3.55271e-15 12.1389
1 18.2551 29.2063 12.1389
1 18.2747 29.9116 11.314
1 17.4412 29.1686 11.3395
1 19.0488 3.55271e-15 12.1389
1 19.8425 29.2063 12.1389
1 19.8413 29.9146 11.3133
1 19.0477 29.1624 11.3643
1 20.6362 3.55271e-15 12.1389
1 21.4299 29.2063 12.1389
1 21.4294 29.9321 11.2901
1 20.6512 29.1491 11.3553
1 22.2236 3.55271e-15 12.1389
1 23.0173 29.2063 12.1389
1 23.0073 29.9255 11.3068
1 22.1934 29.1708 11.343
1 23.811 3.55271e-15 12.1389
1 24.6047 29.2063 12.1389
1 24.618 29.9334 11.3227
1 23.8266 29.1874 11.3191
1 25.3984 3.55271e-15 12.1389
1 26.1921 29.2063 12.1389
1 26.1864 29.9063 11.3077
1 25.4089 29.1503 11.3556
1 26.9858 3.55271e-15 12.1389
1 27.7795 29.2063 12.1389
1 27.767 29.9076 11.3099
1 26.9909 29.1634 11.3136
1 28.5732 3.55271e-15 12.1389
1 29.3669 29.2063 12.1389
1 29.2699 29.9423 11.2797
1 28.5227 29.1747 11.3216
1 30 28.4126 12.1389
1 0.793701 27.6189 12.1389
1 0.827366 28.4093 11.3217
1 0.0767861 27.6321 11.3123
1 1.5874 28.4126 12.1389
1 2.3811 27.6189 12.1389
1 2.38628 28.4204 11.3297
1 1.60822 27.6119 11.3324
1 3.1748 28.4126 12.1389
1 3.9685 27.6189 12.1389
1 3.98325 28.4109 11.3716
1 3.17785 27.6084 11.338
1 4.7622 28.4126 12.1389
1 5.5559 27.6189 12.1389
1 5.57362 28.3914 11.3561
1 4.75064 27.6248 11.3671
1 6.3496 28.4126 12.1389
1 7.1433 27.6189 12.1389
1 7.14889 28.3907 11.3587
1 6.38109 27.5955 11.3413
1 7.93701 28.4126 12.1389
1 8.73071 27.6189 12.1389
1 8.72985 28.3959 11.3599
1 7.92356 27.6061 11.3161
1 9.52441 28.4126 12.1389
1 10.3181 27.6189 12.1389
1 10.2978 28.3806 11.3388
1 9.50606 27.5893 11.3524
1 11.1118 28.4126 12.1389
1 11.9055 27.6189 12.1389
1 11.9234 28.4135 11.343
1 11.1199 27.5959 11.3273
1 12.6992 28.4126 12.1389
1 13.4929 27.6189 12.1389
1 13.5097 28.3911 11.3254
1 12.7126 27.6066 11.3395
1 14.2866 28.4126 12.1389
1 15.0803 27.6189 12.1389
1 15.0787 28.3976 11.3465
1 14.288 27.5799 11.3504
1 15.874 28.4126 12.1389
1 16.6677 27.6189 12.1389
1 16.6571 28.4106 11.3447
1 15.8795 27.5993 11.3466
1 17.4614 28.4126 12.1389
1 18.2551 27.6189 12.1389
1 18.2362 28.3795 11.3651
1 17.4366 27.5961 11.3321
1 19.0488 28.4126 12.1389
1 19.8425 27.6189 12.1389
1 19.85 28.4003 11.3504
1 19.0515 27.6112 11.352
1 20.6362 28.4126 12.1389
1 21.4299 27.6189 12.1389
1 21.4341 28.3842 11.3242
1 20.6374 27.5856 11.3467
1 22.2236 28.4126 12.1389
1 23.0173 27.6189 12.1389
1 22.971 28.397 11.3108
1 22.2101 27.5817 11.3324
1 23.811 28.4126 12.1389
1 24.6047 27.6189 12.1389
1 24.5981 28.3972 11.3672
1 23.7906 27.5918 11.3319
1 25.3984 28.4126 12.1389
1 26.1921 27.6189 12.1389
1 26.2032 28.3932 11.3431
1 25.4043 27.619 11.3493
1 26.9858 28.4126 12.1389
1 27.7795 27.6189 12.1389
1 27.7628 28.3893 11.3338
1 26.9788 27.5851 11.3422
1 28.5732 28.4126 12.1389
1 29.3669 27.6189 12.1389
1 29.2987 28.3964 11.3056
1 28.5537 27.6257 11.326
1 30 26.8252 12.1389
1 0.793701 26.0315 12.1389
1 0.828615 26.8114 11.3361
1 0.082687 26.0287 11.328
1 1.5874 26.8252 12.1389
1 2.3811 26.0315 12.1389
1 2.40511 26.8275 11.3508
1 1.60681 26.0405 11.3414
1 3.1748 26.8252 12.1389
1 3.9685 26.0315 12.1389
1 3.95664 26.8308 11.3559
1 3.18254 26.0346 11.3254
1 4.7622 26.8252 12.1389
1 5.5559 26.0315 12.1389
1 5.5559 26.8491 11.3527
1 4.77324 26.0614 11.3441
1 6.3496 26.8252 12.1389
1 7.1433 26.0315 12.1389
1 7.16167 26.8045 11.3408
1 6.35594 26.0262 11.3304
1 7.93701 26.8252 12.1389
1 8.73071 26.0315 12.1389
1 8.72837 26.8119 11.3277
1 7.94356 26.0422 11.3224
1 9.52441 26.8252 12.1389
1 10.3181 26.0315 12.1389
1 10.3327 26.8311 11.3419
1 9.51916 26.0502 11.3464
1 11.1118 26.8252 12.1389
1 11.9055 26.0315 12.1389
1 11.9067 26.8156 11.358
1 11.0904 26.0204 11.354
1 12.6992 26.8252 12.1389
1 13.4929 26.0315 12.1389
1 13.4859 26.8111 11.3577
1 12.6874 26.0271 11.3614
1 14.2866 26.8252 12.1389
1 15.0803 26.0315 12.1389
1 15.0774 26.8069 11.364
1 14.2522 25.9967 11.331
1 15.874 26.8252 12.1389
1 16.6677 26.0315 12.1389
1 16.6731 26.7936 11.3395
1 15.8646 26.0268 11.3383
1 17.4614 26.8252 12.1389
1 18.2551 26.0315 12.1389
1 18.247 26.8221 11.3136
1 17.4647 26.0221 11.3323
1 19.0488 26.8252 12.1389
1 19.8425 26.0315 12.1389
1 19.8556 26.8142 11.3668
1 19.0296 25.9968 11.3598
1 20.6362 26.8252 12.1389
1 21.4299 26.0315 12.1389
1 21.4178 26.7954 11.333
1 20.6514 25.9959 11.3275
1 22.2236 26.8252 12.1389
1 23.0173 26.0315 12.1389
1 22.9971 26.8035 11.3357
1 22.2124 26.0183 11.3616
1 23.811 26.8252 12.1389
1 24.6047 26.0315 12.1389
1 24.5947 26.8273 11.3351
1 23.822 26.0265 11.3652
1 25.3984 26.8252 12.1389
1 26.1921 26.0315 12.1389
1 26.1758 26.8107 11.3461
1 25.3756 26.0272 11.3243
1 26.9858 26.8252 12.1389
1 27.7795 26.0315 12.1389
1 27.7656 26.8171 11.326
1 26.9695 26.0293 11.3361
1 28.5732 26.8252 12.1389
1 29.3669 26.0315 12.1389
1 29.3304 26.8068 11.3048
1 28.5494 26.0305 11.3324
1 30 25.2378 12.1389
1 0.793701 24.4441 12.1389
1 0.826838 25.2095 11.3281
1 0.0515311 24.4395 11.3171
1 1.5874 25.2378 12.1389
1 2.3811 24.4441 12.1389
1 2.40093 25.2323 11.3507
1 1.63706 24.4161 11.3734
1 3.1748 25.2378 12.1389
1 3.9685 24.4441 12.1389
1 3.97302 25.2506 11.3579
1 3.2021 24.4268 11.3244
1 4.7622 25.2378 12.1389
1 5.5559 24.4441 12.1389
1 5.53291 25.2347 11.3576
1 4.77737 24.44 11.3461
1 6.3496 25.2378 12.1389
1 7.1433 24.4441 12.1389
1 7.14856 25.2594 11.3663
1 6.34128 24.4362 11.3509
1 7.93701 25.2378 12.1389
1 8.73071 24.4441 12.1389
1 8.75455 25.244 11.3228
1 7.92621 24.4465 11.3234
1 9.52441 25.2378 12.1389
1 10.3181 24.4441 12.1389
1 10.2843 25.2254 11.3292
1 9.52254 24.4571 11.3249
1 11.1118 25.2378 12.1389
1 11.9055 24.4441 12.1389
1 11.8972 25.2418 11.3664
1 11.0989 24.4416 11.3606
1 12.6992 25.2378 12.1389
1 13.4929 24.4441 12.1389
1 13.4857 25.227 11.3418
1 12.6748 24.4192 11.3568
1 14.2866 25.2378 12.1389
1 15.0803 24.4441 12.1389
1 15.0713 25.2585 11.3485
1 14.2991 24.4444 11.3091
1 15.874 25.2378 12.1389
1 16.6677 24.4441 12.1389
1 16.6759 25.2368 11.3377
1 15.8623 24.4404 11.3123
1 17.4614 25.2378 12.1389
1 18.2551 24.4441 12.1389
1 18.2443 25.215 11.3458
1 17.4655 24.4472 11.3415
1 19.0488 25.2378 12.1389
1 19.8425 24.4441 12.1389
1 19.8249 25.2248 11.3416
1 19.0411 24.4242 11.3518
1 20.6362 25.2378 12.1389
1 21.4299 24.4441 12.1389
1 21.4382 25.2168 11.3398
1 20.6479 24.4289 11.344
1 22.2236 25.2378 12.1389
1 23.0173 24.4441 12.1389
1 22.988 25.2345 11.3471
1 22.2456 24.4393 11.354
1 23.811 25.2378 12.1389
1 24.6047 24.4441 12.1389
1 24.6155 25.2274 11.3651
1 23.8238 24.4501 11.3603
1 25.3984 25.2378 12.1389
1 26.1921 24.4441 12.1389
1 26.182 25.2281 11.3301
1 25.3864 24.4188 11.3454
1 26.9858 25.2378 12.1389
1 27.7795 24.4441 12.1389
1 27.7704 25.229 11.3513
1 26.9778 24.4123 11.3339
1 28.5732 25.2378 12.1389
1 29.3669 24.4441 12.1389
1 29.3138 25.2482 11.3221
1 28.5389 24.4544 11.3445
1 30 23.6504 12.1389
1 0.793701 22.8567 12.1389
1 0.84687 23.6379 11.3447
1 0.0458463 22.8633 11.319
1 1.5874 23.6504 12.1389
1 2.3811 22.8567 12.1389
1 2.40932 23.6536 11.3514
1 1.60413 22.8573 11.3522
1 3.1748 23.6504 12.1389
1 3.9685 22.8567 12.1389
1 3.9959 23.6524 11.365
1 3.19444 22.8646 11.3363
1 4.7622 23.6504 12.1389
1 5.5559 22.8567 12.1389
1 5.56856 23.6298 11.3473
1 4.77729 22.8472 11.3715
1 6.3496 23.6504 12.1389
1 7.1433 22.8567 12.1389
1 7.14553 23.6564 11.3274
1 6.35636 22.8639 11.358
1 7.93701 23.6504 12.1389
1 8.73071 22.8567 12.1389
1 8.73876 23.6681 11.341
1 7.93472 22.8406 11.337
1 9.52441 23.6504 12.1389
1 10.3181 22.8567 12.1389
1 10.3048 23.6469 11.3327
1 9.51961 22.8461 11.366
1 11.1118 23.6504 12.1389
1 11.9055 22.8567 12.1389
1 11.8938 23.6256 11.3355
1 11.124 22.8441 11.3407
1 12.6992 23.6504 12.1389
1 13.4929 22.8567 12.1389
1 13.4889 23.6591 11.3486
1 12.7012 22.8448 11.3561
1 14.2866 23.6504 12.1389
1 15.0803 22.8567 12.1389
1 15.0662 23.6425 11.329
1 14.2807 22.898 11.342
1 15.874 23.6504 12.1389
1 16.6677 22.8567 12.1389
1 16.662 23.6544 11.3293
1 15.9105 22.8598 11.3381
1 17.4614 23.6504 12.1389
1 18.2551 22.8567 12.1389
1 18.2209 23.6585 11.3403
1 17.4679 22.8461 11.3576
1 19.0488 23.6504 12.1389
1 19.8425 22.8567 12.1389
1 19.8455 23.653 11.3463
1 19.0448 22.8716 11.3518
1 20.6362 23.6504 12.1389
1 21.4299 22.8567 12.1389
1 21.4338 23.6467 11.3576
1 20.628 22.8463 11.3513
1 22.2236 23.6504 12.1389
1 23.0173 22.8567 12.1389
1 23.0014 23.6326 11.341
1 22.2281 22.8544 11.3429
1 23.811 23.6504 12.1389
1 24.6047 22.8567 12.1389
1 24.5814 23.6406 11.3385
1 23.8024 22.8467 11.3623
1 25.3984 23.6504 12.1389
1 26.1921 22.8567 12.1389
1 26.2175 23.6561 11.3286
1 25.3967 22.8461 11.3551
1 26.9858 23.6504 12.1389
1 27.7795 22.8567 12.1389
1 27.7621 23.635 11.3309
1 26.9829 22.8354 11.3338
1 28.5732 23.6504 12.1389
1 29.3669 22.8567 12.1389
1 29.2988 23.6791 11.3168
1 28.5458 22.8324 11.3495
1 30 22.063 12.1389
1 0.793701 21.2693 12.1389
1 0.837353 22.0616 11.3518
1 0.0798633 21.2577 11.3037
1 1.5874 22.063 12.1389
1 2.3811 21.2693 12.1389
1 2.40058 22.0669 11.3677
1 1.5957 21.2699 11.3553
1 3.1748 22.063 12.1389
1 3.9685 21.2693 12.1389
1 3.95219 22.066 11.3439
1 3.18757 21.2935 11.3565
1 4.7622 22.063 12.1389
1 5.5559 21.2693 12.1389
1 5.58201 22.0666 11.3649
1 4.76358 21.2838 11.3508
1 6.3496 22.063 12.1389
1 7.1433 21.2693 12.1389
1 7.16105 22.0554 11.3274
1 6.33501 21.2816 11.3211
1 7.93701 22.063 12.1389
1 8.73071 21.2693 12.1389
1 8.73429 22.0615 11.3332
1 7.94962 21.2529 11.3278
1 9.52441 22.063 12.1389
1 10.3181 21.2693 12.1389
1 10.3093 22.0565 11.3515
1 9.5268 21.2447 11.3427
1 11.1118 22.063 12.1389
1 11.9055 21.2693 12.1389
1 11.9034 22.0445 11.3458
1 11.0791 21.2503 11.3306
1 12.6992 22.063 12.1389
1 13.4929 21.2693 12.1389
1 13.4815 22.0635 11.3545
1 12.6834 21.2655 11.3597
1 14.2866 22.063 12.1389
1 15.0803 21.2693 12.1389
1 15.0937 22.0638 11.3411
1 14.2921 21.2531 11.34
1 15.874 22.063 12.1389
1 16.6677 21.2693 12.1389
1 16.6668 22.0626 11.3503
1 15.8513 21.2651 11.3801
1 17.4614 22.063 12.1389
1 18.2551 21.2693 12.1389
1 18.2664 22.0415 11.3496
1 17.4632 21.2728 11.359
1 19.0488 22.063 12.1389
1 19.8425 21.2693 12.1389
1 19.84 22.0608 11.3429
1 19.0122 21.2685 11.3457
1 20.6362 22.063 12.1389
1 21.4299 21.2693 12.1389
1 21.4283 22.0764 11.3444
1 20.6169 21.2552 11.3907
1 22.2236 22.063 12.1389
1 23.0173 21.2693 12.1389
1 23.0049 22.0615 11.347
1 22.2118 21.2605 11.3737
1 23.811 22.063 12.1389
1 24.6047 21.2693 12.1389
1 24.6047 22.0934 11.3546
1 23.7852 21.2665 11.3648
1 25.3984 22.063 12.1389
1 26.1921 21.2693 12.1389
1 26.1956 22.0761 11.3373
1 25.4239 21.2832 11.3509
1 26.9858 22.063 12.1389
1 27.7795 21.2693 12.1389
1 27.7691 22.0786 11.3179
1 26.988 21.2845 11.3252
1 28.5732 22.063 12.1389
1 29.3669 21.2693 12.1389
1 29.2814 22.0407 11.322
1 28.5458 21.2712 11.3361
1 30 20.4756 12.1389
1 0.793701 19.6819 12.1389
1 0.847117 20.4764 11.3367
1 0.0813731 19.7052 11.3211
1 1.5874 20.4756 12.1389
1 2.3811 19.6819 12.1389
1 2.37267 20.4851 11.3348
1 1.58623 19.6857 11.3397
1 3.1748 20.4756 12.1389
1 3.9685 19.6819 12.1389
1 3.97513 20.4825 11.3713
1 3.1842 19.6953 11.3508
1 4.7622 20.4756 12.1389
1 5.5559 19.6819 12.1389
1 5.54955 20.4877 11.3456
1 4.76262 19.6946 11.3541
1 6.3496 20.4756 12.1389
1 7.1433 19.6819 12.1389
1 7.16455 20.4663 11.3408
1 6.36378 19.658 11.3377
1 7.93701 20.4756 12.1389
1 8.73071 19.6819 12.1389
1 8.73764 20.4732 11.3479
1 7.94454 19.682 11.3243
1 9.52441 20.4756 12.1389
1 10.3181 19.6819 12.1389
1 10.3347 20.4874 11.3469
1 9.54052 19.6839 11.3312
1 11.1118 20.4756 12.1389
1 11.9055 19.6819 12.1389
1 11.9016 20.4917 11.3618
1 11.1313 19.6729 11.3628
1 12.6992 20.4756 12.1389
1 13.4929 19.6819 12.1389
1 13.4826 20.4824 11.35
1 12.7146 19.6908 11.3355
1 14.2866 20.4756 12.1389
1 15.0803 19.6819 12.1389
1 15.0467 20.4594 11.357
1 14.2664 19.6728 11.3473
1 15.874 20.4756 12.1389
1 16.6677 19.6819 12.1389
1 16.6831 20.4978 11.3498
1 15.8858 19.6864 11.3379
1 17.4614 20.4756 12.1389
1 18.2551 19.6819 12.1389
1 18.2485 20.4866 11.3338
1 17.4601 19.6768 11.3382
1 19.0488 20.4756 12.1389
1 19.8425 19.6819 12.1389
1 19.8295 20.4676 11.3728
1 19.0344 19.6896 11.3483
1 20.6362 20.4756 12.1389
1 21.4299 19.6819 12.1389
1 21.3991 20.4707 11.3436
1 20.6305 19.6795 11.3529
1 22.2236 20.4756 12.1389
1 23.0173 19.6819 12.1389
1 22.9934 20.4796 11.3488
1 22.1839 19.6833 11.3586
1 23.811 20.4756 12.1389
1 24.6047 19.6819 12.1389
1 24.6069 20.4655 11.3635
1 23.8121 19.6754 11.3507
1 25.3984 20.4756 12.1389
1 26.1921 19.6819 12.1389
1 26.2016 20.4913 11.3448
1 25.3918 19.6857 11.3558
1 26.9858 20.4756 12.1389
1 27.7795 19.6819 12.1389
1 27.7745 20.5115 11.3585
1 26.9542 19.7091 11.3432
1 28.5732 20.4756 12.1389
1 29.3669 19.6819 12.1389
1 29.2963 20.4709 11.329
1 28.5134 19.6886 11.3588
1 30 18.8882 12.1389
1 0.793701 18.0945 12.1389
1 0.831346 18.8895 11.3721
1 0.0414529 18.1166 11.3246
1 1.5874 18.8882 12.1389
1 2.3811 18.0945 12.1389
1 2.3757 18.8758 11.3304
1 1.60641 18.069 11.3766
1 3.1748 18.8882 12.1389
1 3.9685 18.0945 12.1389
1 3.97152 18.8883 11.363
1 3.16648 18.1188 11.3522
1 4.7622 18.8882 12.1389
1 5.5559 18.0945 12.1389
1 5.55774 18.8785 11.3367
1 4.75238 18.1031 11.3405
1 6.3496 18.8882 12.1389
1 7.1433 18.0945 12.1389
1 7.17398 18.8863 11.349
1 6.3633 18.1198 11.3385
1 7.93701 18.8882 12.1389
1 8.73071 18.0945 12.1389
1 8.71487 18.8709 11.335
1 7.93958 18.0841 11.3495
1 9.52441 18.8882 12.1389
1 10.3181 18.0945 12.1389
1 10.3036 18.9095 11.346
1 9.53483 18.1063 11.3651
1 11.1118 18.8882 12.1389
1 11.9055 18.0945 12.1389
1 11.8979 18.877 11.3393
1 11.1091 18.0999 11.3353
1 12.6992 18.8882 12.1389
1 13.4929 18.0945 12.1389
1 13.4976 18.8951 11.3193
1 12.69 18.088 11.3401
1 14.2866 18.8882 12.1389
1 15.0803 18.0945 12.1389
1 15.0756 18.8936 11.345
1 14.3079 18.0952 11.3626
1 15.874 18.8882 12.1389
1 16.6677 18.0945 12.1389
1 16.6729 18.895 11.3508
1 15.8729 18.0931 11.3501
1 17.4614 18.8882 12.1389
1 18.2551 18.0945 12.1389
1 18.2436 18.9093 11.3462
1 17.4756 18.0958 11.3314
1 19.0488 18.8882 12.1389
1 19.8425 18.0945 12.1389
1 19.821 18.9024 11.3368
1 19.0142 18.1179 11.3546
1 20.6362 18.8882 12.1389
1 21.4299 18.0945 12.1389
1 21.4106 18.8884 11.3402
1 20.6104 18.1052 11.3493
1 22.2236 18.8882 12.1389
1 23.0173 18.0945 12.1389
1 23.0127 18.8958 11.3503
1 22.2118 18.0802 11.3417
1 23.811 18.8882 12.1389
1 24.6047 18.0945 12.1389
1 24.5981 18.8846 11.3604
1 23.8121 18.0982 11.346
1 25.3984 18.8882 12.1389
1 26.1921 18.0945 12.1389
1 26.1823 18.8811 11.3494
1 25.4111 18.0745 11.3624
1 26.9858 18.8882 12.1389
1 27.7795 18.0945 12.1389
1 27.7376 18.8974 11.3377
1 26.9731 18.0801 11.3315
1 28.5732 18.8882 12.1389
1 29.3669 18.0945 12.1389
1 29.2807 18.9213 11.315
1 28.5447 18.0949 11.3384
1 30 17.3008 12.1389
1 0.793701 16.5071 12.1389
1 0.83725 17.2599 11.3444
1 0.0451883 16.5043 11.322
1 1.5874 17.3008 12.1389
1 2.3811 16.5071 12.1389
1 2.3961 17.2842 11.356
1 1.58174 16.4967 11.3354
1 3.1748 17.3008 12.1389
1 3.9685 16.5071 12.1389
1 3.95992 17.3294 11.3619
1 3.16796 16.5083 11.3682
1 4.7622 17.3008 12.1389
1 5.5559 16.5071 12.1389
1 5.58422 17.3167 11.3451
1 4.78931 16.4771 11.3358
1 6.3496 17.3008 12.1389
1 7.1433 16.5071 12.1389
1 7.13116 17.3313 11.3431
1 6.3319 16.5032 11.3518
1 7.93701 17.3008 12.1389
1 8.73071 16.5071 12.1389
1 8.73666 17.3347 11.3851
1 7.94455 16.5303 11.3432
1 9.52441 17.3008 12.1389
1 10.3181 16.5071 12.1389
1 10.3199 17.306 11.341
1 9.48862 16.4928 11.3613
1 11.1118 17.3008 12.1389
1 11.9055 16.5071 12.1389
1 11.8799 17.3311 11.3439
1 11.1186 16.5064 11.3318
1 12.6992 17.3008 12.1389
1 13.4929 16.5071 12.1389
1 13.4902 17.3208 11.3501
1 12.6829 16.5542 11.3495
1 14.2866 17.3008 12.1389
1 15.0803 16.5071 12.1389
1 15.0711 17.3197 11.332
1 14.2712 16.5139 11.3471
1 15.874 17.3008 12.1389
1 16.6677 16.5071 12.1389
1 16.6558 17.3014 11.3391
1 15.8838 16.5185 11.3473
1 17.4614 17.3008 12.1389
1 18.2551 16.5071 12.1389
1 18.2515 17.3355 11.3238
1 17.4457 16.4975 11.3641
1 19.0488 17.3008 12.1389
1 19.8425 16.5071 12.1389
1 19.8231 17.2982 11.3523
1 19.0413 16.4911 11.3455
1 20.6362 17.3008 12.1389
1 21.4299 16.5071 12.1389
1 21.3951 17.3056 11.3646
1 20.6466 16.4955 11.3283
1 22.2236 17.3008 12.1389
1 23.0173 16.5071 12.1389
1 22.9929 17.2807 11.3347
1 22.208 16.4894 11.3265
1 23.811 17.3008 12.1389
1 24.6047 16.5071 12.1389
1 24.6241 17.2994 11.3461
1 23.8333 16.5013 11.3652
1 25.3984 17.3008 12.1389
1 26.1921 16.5071 12.1389
1 26.1913 17.308 11.3198
1 25.403 16.4875 11.3465
1 26.9858 17.3008 12.1389
1 27.7795 16.5071 12.1389
1 27.782 17.2897 11.3513
1 26.9402 16.4943 11.3373
1 28.5732 17.3008 12.1389
1 29.3669 16.5071 12.1389
1 29.2947 17.2688 11.3072
1 28.5451 16.5033 11.3362
1 30 15.7134 12.1389
1 0.793701 14.9197 12.1389
1 0.81305 15.6969 11.348
1 0.0791357 14.9063 11.3198
1 1.5874 15.7134 12.1389
1 2.3811 14.9197 12.1389
1 2.39608 15.7091 11.3174
1 1.6152 14.9249 11.3419
1 3.1748 15.7134 12.1389
1 3.9685 14.9197 12.1389
1 3.96723 15.7402 11.3342
1 3.19004 14.9215 11.343
1 4.7622 15.7134 12.1389
1 5.5559 14.9197 12.1389
1 5.5574 15.7028 11.3462
1 4.77139 14.9512 11.3614
1 6.3496 15.7134 12.1389
1 7.1433 14.9197 12.1389
1 7.15291 15.7236 11.3723
1 6.36755 14.9152 11.361
1 7.93701 15.7134 12.1389
1 8.73071 14.9197 12.1389
1 8.74174 15.7113 11.325
1 7.95465 14.9239 11.3572
1 9.52441 15.7134 12.1389
1 10.3181 14.9197 12.1389
1 10.3134 15.7017 11.3212
1 9.51839 14.9074 11.327
1 11.1118 15.7134 12.1389
1 11.9055 14.9197 12.1389
1 11.9099 15.7372 11.3175
1 11.1302 14.9061 11.3517
1 12.6992 15.7134 12.1389
1 13.4929 14.9197 12.1389
1 13.4629 15.7138 11.333
1 12.6682 14.9415 11.3391
1 14.2866 15.7134 12.1389
1 15.0803 14.9197 12.1389
1 15.0818 15.7457 11.3552
1 14.2737 14.9405 11.3685
1 15.874 15.7134 12.1389
1 16.6677 14.9197 12.1389
1 16.6611 15.7291 11.3755
1 15.8602 14.9095 11.3735
1 17.4614 15.7134 12.1389
1 18.2551 14.9197 12.1389
1 18.2642 15.6912 11.3528
1 17.4681 14.9384 11.3391
1 19.0488 15.7134 12.1389
1 19.8425 14.9197 12.1389
1 19.8478 15.6994 11.3423
1 19.0666 14.916 11.3382
1 20.6362 15.7134 12.1389
1 21.4299 14.9197 12.1389
1 21.4383 15.6947 11.3224
1 20.6232 14.9131 11.3645
1 22.2236 15.7134 12.1389
1 23.0173 14.9197 12.1389
1 22.9915 15.7221 11.3391
1 22.2014 14.8956 11.3309
1 23.811 15.7134 12.1389
1 24.6047 14.9197 12.1389
1 24.5858 15.7076 11.3574
1 23.8049 14.945 11.3679
1 25.3984 15.7134 12.1389
1 26.1921 14.9197 12.1389
1 26.1839 15.7243 11.3875
1 25.3658 14.9134 11.3469
1 26.9858 15.7134 12.1389
1 27.7795 14.9197 12.1389
1 27.7487 15.7071 11.3332
1 26.996 14.9092 11.3514
1 28.5732 15.7134 12.1389
1 29.3669 14.9197 12.1389
1 29.2889 15.6981 11.33
1 28.5424 14.9113 11.3453
1 30 14.126 12.1389
1 0.793701 13.3323 12.1389
1 0.834799 14.1184 11.3673
1 0.0765764 13.3145 11.294
1 1.5874 14.126 12.1389
1 2.3811 13.3323 12.1389
1 2.40479 14.1265 11.3225
1 1.58284 13.336 11.3217
1 3.1748 14.126 12.1389
1 3.9685 13.3323 12.1389
1 3.96333 14.1185 11.3273
1 3.19347 13.3412 11.3372
1 4.7622 14.126 12.1389
1 5.5559 13.3323 12.1389
1 5.55974 14.1304 11.3336
1 4.7892 13.3282 11.3379
1 6.3496 14.126 12.1389
1 7.1433 13.3323 12.1389
1 7.14921 14.1103 11.3306
1 6.3609 13.3595 11.3565
1 7.93701 14.126 12.1389
1 8.73071 13.3323 12.1389
1 8.72425 14.0975 11.334
1 7.93925 13.3526 11.3575
1 9.52441 14.126 12.1389
1 10.3181 13.3323 12.1389
1 10.3493 14.1251 11.3351
1 9.50385 13.3319 11.3321
1 11.1118 14.126 12.1389
1 11.9055 13.3323 12.1389
1 11.9264 14.1337 11.3645
1 11.1003 13.338 11.3318
1 12.6992 14.126 12.1389
1 13.4929 13.3323 12.1389
1 13.4799 14.1331 11.3759
1 12.7011 13.3287 11.3492
1 14.2866 14.126 12.1389
1 15.0803 13.3323 12.1389
1 15.1015 14.1437 11.3518
1 14.292 13.357 11.3291
1 15.874 14.126 12.1389
1 16.6677 13.3323 12.1389
1 16.6634 14.1492 11.3318
1 15.881 13.3333 11.3396
1 17.4614 14.126 12.1389
1 18.2551 13.3323 12.1389
1 18.2476 14.121 11.3579
1 17.4632 13.3388 11.3604
1 19.0488 14.126 12.1389
1 19.8425 13.3323 12.1389
1 19.8421 14.0958 11.373
1 19.0374 13.3263 11.3558
1 20.6362 14.126 12.1389
1 21.4299 13.3323 12.1389
1 21.4265 14.1404 11.3696
1 20.657 13.347 11.3538
1 22.2236 14.126 12.1389
1 23.0173 13.3323 12.1389
1 22.9978 14.1467 11.3571
1 22.187 13.3347 11.34
1 23.811 14.126 12.1389
1 24.6047 13.3323 12.1389
1 24.6006 14.1254 11.3704
1 23.8081 13.3433 11.3582
1 25.3984 14.126 12.1389
1 26.1921 13.3323 12.1389
1 26.177 14.1188 11.3438
1 25.3781 13.3295 11.3777
1 26.9858 14.126 12.1389
1 27.7795 13.3323 12.1389
1 27.7767 14.1091 11.3338
1 26.9751 13.3399 11.353
1 28.5732 14.126 12.1389
1 29.3669 13.3323 12.1389
1 29.323 14.1074 11.3217
1 28.5531 13.3261 11.3259
1 30 12.5386 12.1389
1 0.793701 11.7449 12.1389
1 0.831203 12.5035 11.3476
1 0.0338864 11.7588 11.3148
1 1.5874 12.5386 12.1389
1 2.3811 11.7449 12.1389
1 2.41411 12.5548 11.3586
1 1.65066 11.753 11.3478
1 3.1748 12.5386 12.1389
1 3.9685 11.7449 12.1389
1 3.96821 12.5351 11.342
1 3.16244 11.7323 11.3845
1 4.7622 12.5386 12.1389
1 5.5559 11.7449 12.1389
1 5.55399 12.5436 11.3485
1 4.76693 11.7435 11.3524
1 6.3496 12.5386 12.1389
1 7.1433 11.7449 12.1389
1 7.14787 12.5346 11.3427
1 6.37575 11.7353 11.36
1 7.93701 12.5386 12.1389
1 8.73071 11.7449 12.1389
1 8.71025 12.5454 11.3329
1 7.96088 11.744 11.3373
1 9.52441 12.5386 12.1389
1 10.3181 11.7449 12.1389
1 10.311 12.5344 11.3413
1 9.52171 11.7399 11.3597
1 11.1118 12.5386 12.1389
1 11.9055 11.7449 12.1389
1 11.8942 12.5494 11.3466
1 11.1181 11.7449 11.3598
1 12.6992 12.5386 12.1389
1 13.4929 11.7449 12.1389
1 13.4917 12.5272 11.3362
1 12.6774 11.768 11.3269
1 14.2866 12.5386 12.1389
1 15.0803 11.7449 12.1389
1 15.0931 12.5239 11.3545
1 14.2687 11.724 11.3567
1 15.874 12.5386 12.1389
1 16.6677 11.7449 12.1389
1 16.6905 12.5463 11.354
1 15.8609 11.7516 11.3458
1 17.4614 12.5386 12.1389
1 18.2551 11.7449 12.1389
1 18.2582 12.5479 11.3332
1 17.4664 11.7245 11.3382
1 19.0488 12.5386 12.1389
1 19.8425 11.7449 12.1389
1 19.8469 12.5393 11.3395
1 19.0395 11.7259 11.33
1 20.6362 12.5386 12.1389
1 21.4299 11.7449 12.1389
1 21.4344 12.5472 11.3266
1 20.6535 11.7618 11.3617
1 22.2236 12.5386 12.1389
1 23.0173 11.7449 12.1389
1 22.9934 12.5573 11.3509
1 22.204 11.7412 11.3313
1 23.811 12.5386 12.1389
1 24.6047 11.7449 12.1389
1 24.5898 12.5389 11.3559
1 23.8038 11.7214 11.371
1 25.3984 12.5386 12.1389
1 26.1921 11.7449 12.1389
1 26.1881 12.5371 11.3534
1 25.3849 11.7388 11.3577
1 26.9858 12.5386 12.1389
1 27.7795 11.7449 12.1389
1 27.7789 12.5452 11.3436
1 26.9987 11.7435 11.3509
1 28.5732 12.5386 12.1389
1 29.3669 11.7449 12.1389
1 29.2759 12.5484 11.3444
1 28.5372 11.7329 11.3185
1 30 10.9512 12.1389
1 0.793701 10.1575 12.1389
1 0.848054 10.9574 11.3439
1 0.0674043 10.1557 11.3202
1 1.5874 10.9512 12.1389
1 2.3811 10.1575 12.1389
1 2.4011 10.938 11.3578
1 1.60502 10.1349 11.3444
1 3.1748 10.9512 12.1389
1 3.9685 10.1575 12.1389
1 3.94637 10.9452 11.3584
1 3.17247 10.1221 11.3461
1 4.7622 10.9512 12.1389
1 5.5559 10.1575 12.1389
1 5.6051 10.9578 11.3385
1 4.75094 10.1688 11.353
1 6.3496 10.9512 12.1389
1 7.1433 10.1575 12.1389
1 7.16079 10.9247 11.3633
1 6.34253 10.159 11.3399
1 7.93701 10.9512 12.1389
1 8.73071 10.1575 12.1389
1 8.76701 10.9347 11.3518
1 7.94948 10.1632 11.3383
1 9.52441 10.9512 12.1389
1 10.3181 10.1575 12.1389
1 10.3217 10.9376 11.3371
1 9.54437 10.1488 11.3592
1 11.1118 10.9512 12.1389
1 11.9055 10.1575 12.1389
1 11.9092 10.9679 11.3677
1 11.1057 10.1463 11.3482
1 12.6992 10.9512 12.1389
1 13.4929 10.1575 12.1389
1 13.4796 10.9643 11.3609
1 12.7149 10.1427 11.3404
1 14.2866 10.9512 12.1389
1 15.0803 10.1575 12.1389
1 15.0895 10.9268 11.342
1 14.2803 10.1384 11.3444
1 15.874 10.9512 12.1389
1 16.6677 10.1575 12.1389
1 16.6806 10.9662 11.3532
1 15.9095 10.167 11.3685
1 17.4614 10.9512 12.1389
1 18.2551 10.1575 12.1389
1 18.2652 10.9182 11.3731
1 17.4541 10.1533 11.3499
1 19.0488 10.9512 12.1389
1 19.8425 10.1575 12.1389
1 19.8728 10.9339 11.3537
1 19.0763 10.1306 11.3557
1 20.6362 10.9512 12.1389
1 21.4299 10.1575 12.1389
1 21.4475 10.9503 11.3403
1 20.6427 10.1383 11.3509
1 22.2236 10.9512 12.1389
1 23.0173 10.1575 12.1389
1 22.9981 10.9608 11.3365
1 22.1975 10.1731 11.3534
1 23.811 10.9512 12.1389
1 24.6047 10.1575 12.1389
1 24.602 10.9282 11.3438
1 23.7746 10.1475 11.355
1 25.3984 10.9512 12.1389
1 26.1921 10.1575 12.1389
1 26.2192 10.9498 11.3467
1 25.3905 10.1768 11.3643
1 26.9858 10.9512 12.1389
1 27.7795 10.1575 12.1389
1 27.7505 10.9609 11.3505
1 26.9684 10.1716 11.3464
1 28.5732 10.9512 12.1389
1 29.3669 10.1575 12.1389
1 29.2888 10.9388 11.3235
1 28.5035 10.1352 11.3425
1 30 9.36379 12.1389
1 0.793701 8.57009 12.1389
1 0.817572 9.37584 11.3419
1 0.0637744 8.5729 11.3025
1 1.5874 9.36379 12.1389
1 2.3811 8.57009 12.1389
1 2.3813 9.34643 11.3192
1 1.60641 8.55523 11.3513
1 3.1748 9.36379 12.1389
1 3.9685 8.57009 12.1389
1 3.96771 9.38796 11.3335
1 3.17932 8.5894 11.344
1 4.7622 9.36379 12.1389
1 5.5559 8.57009 12.1389
1 5.53314 9.36022 11.3465
1 4.76353 8.58147 11.3623
1 6.3496 9.36379 12.1389
1 7.1433 8.57009 12.1389
1 7.1418 9.39782 11.3417
1 6.35648 8.57627 11.3312
1 7.93701 9.36379 12.1389
1 8.73071 8.57009 12.1389
1 8.7262 9.34776 11.3108
1 7.9378 8.59565 11.3132
1 9.52441 9.36379 12.1389
1 10.3181 8.57009 12.1389
1 10.3359 9.36879 11.3372
1 9.51268 8.56253 11.3419
1 11.1118 9.36379 12.1389
1 11.9055 8.57009 12.1389
1 11.8985 9.36002 11.3581
1 11.1259 8.56616 11.3488
1 12.6992 9.36379 12.1389
1 13.4929 8.57009 12.1389
1 13.4799 9.3558 11.3542
1 12.7041 8.5606 11.3417
1 14.2866 9.36379 12.1389
1 15.0803 8.57009 12.1389
1 15.079 9.36505 11.3439
1 14.2629 8.56768 11.3403
1 15.874 9.36379 12.1389
1 16.6677 8.57009 12.1389
1 16.6995 9.35565 11.3645
1 15.8689 8.57441 11.3645
1 17.4614 9.36379 12.1389
1 18.2551 8.57009 12.1389
1 18.2422 9.33867 11.3363
1 17.459 8.55226 11.382
1 19.0488 9.36379 12.1389
1 19.8425 8.57009 12.1389
1 19.8467 9.34527 11.3357
1 19.0595 8.55554 11.3572
1 20.6362 9.36379 12.1389
1 21.4299 8.57009 12.1389
1 21.435 9.3561 11.347
1 20.6562 8.57937 11.3252
1 22.2236 9.36379 12.1389
1 23.0173 8.57009 12.1389
1 22.9933 9.36324 11.3447
1 22.2233 8.57866 11.3172
1 23.811 9.36379 12.1389
1 24.6047 8.57009 12.1389
1 24.611 9.36856 11.3487
1 23.8303 8.59513 11.346
1 25.3984 9.36379 12.1389
1 26.1921 8.57009 12.1389
1 26.1791 9.38656 11.3589
1 25.3642 8.571 11.3593
1 26.9858 9.36379 12.1389
1 27.7795 8.57009 12.1389
1 27.7595 9.36245 11.3464
1 26.9788 8.59156 11.3798
1 28.5732 9.36379 12.1389
1 29.3669 8.57009 12.1389
1 29.3068 9.35688 11.3235
1 28.535 8.57846 11.3354
1 30 7.77639 12.1389
1 0.793701 6.98268 12.1389
1 0.828957 7.77471 11.3559
1 0.0663129 6.9712 11.3124
1 1.5874 7.77639 12.1389
1 2.3811 6.98268 12.1389
1 2.38793 7.78324 11.3408
1 1.62458 6.98434 11.3607
1 3.1748 7.77639 12.1389
1 3.9685 6.98268 12.1389
1 3.99116 7.80161 11.3436
1 3.19498 6.98047 11.3279
1 4.7622 7.77639 12.1389
1 5.5559 6.98268 12.1389
1 5.5708 7.79036 11.3502
1 4.7831 6.98315 11.3349
1 6.3496 7.77639 12.1389
1 7.1433 6.98268 12.1389
1 7.13662 7.7829 11.3513
1 6.33359 6.97891 11.3103
1 7.93701 7.77639 12.1389
1 8.73071 6.98268 12.1389
1 8.73019 7.75575 11.3337
1 7.9505 6.98698 11.356
1 9.52441 7.77639 12.1389
1 10.3181 6.98268 12.1389
1 10.3346 7.78322 11.3619
1 9.54752 6.97181 11.3439
1 11.1118 7.77639 12.1389
1 11.9055 6.98268 12.1389
1 11.8987 7.78524 11.3483
1 11.0991 6.97463 11.3518
1 12.6992 7.77639 12.1389
1 13.4929 6.98268 12.1389
1 13.4851 7.79164 11.3489
1 12.6799 7.00204 11.36
1 14.2866 7.77639 12.1389
1 15.0803 6.98268 12.1389
1 15.1128 7.80083 11.3462
1 14.2789 7.02963 11.3446
1 15.874 7.77639 12.1389
1 16.6677 6.98268 12.1389
1 16.6625 7.7768 11.3571
1 15.8627 6.97137 11.3568
1 17.4614 7.77639 12.1389
1 18.2551 6.98268 12.1389
1 18.2165 7.77167 11.3683
1 17.4506 6.96993 11.3177
1 19.0488 7.77639 12.1389
1 19.8425 6.98268 12.1389
1 19.8587 7.75574 11.3323
1 19.0294 7.00162 11.3405
1 20.6362 7.77639 12.1389
1 21.4299 6.98268 12.1389
1 21.4552 7.78873 11.3359
1 20.6505 6.98156 11.344
1 22.2236 7.77639 12.1389
1 23.0173 6.98268 12.1389
1 23.02 7.77045 11.3457
1 22.2297 7.01217 11.3404
1 23.811 7.77639 12.1389
1 24.6047 6.98268 12.1389
1 24.5782 7.78768 11.3695
1 23.8075 7.00338 11.3384
1 25.3984 7.77639 12.1389
1 26.1921 6.98268 12.1389
1 26.1842 7.77435 11.3554
1 25.3886 6.94668 11.3607
1 26.9858 7.77639 12.1389
1 27.7795 6.98268 12.1389
1 27.7433 7.74479 11.3163
1 26.9786 6.98458 11.3468
1 28.5732 7.77639 12.1389
1 29.3669 6.98268 12.1389
1 29.3039 7.78785 11.3142
1 28.5501 6.96585 11.3297
1 30 6.18898 12.1389
1 0.793701 5.39528 12.1389
1 0.82849 6.17548 11.3219
1 0.0458184 5.4037 11.296
1 1.5874 6.18898 12.1389
1 2.3811 5.39528 12.1389
1 2.41457 6.17769 11.3196
1 1.59436 5.38737 11.3367
1 3.1748 6.18898 12.1389
1 3.9685 5.39528 12.1389
1 3.97816 6.18185 11.3351
1 3.17553 5.37981 11.3586
1 4.7622 6.18898 12.1389
1 5.5559 5.39528 12.1389
1 5.58552 6.19592 11.3433
1 4.76005 5.40588 11.3697
1 6.3496 6.18898 12.1389
1 7.1433 5.39528 12.1389
1 7.12682 6.19554 11.3464
1 6.36421 5.38789 11.3564
1 7.93701 6.18898 12.1389
1 8.73071 5.39528 12.1389
1 8.75698 6.19179 11.354
1 7.95042 5.38086 11.3605
1 9.52441 6.18898 12.1389