9376
Atoms. Timestep: 4000000
1 7.5 3.55271e-15 10.6746
1 8.2937 29.2063 10.6746
1 8.30664 29.899 9.83545
1 7.55238 29.1585 9.84378
1 9.0874 3.55271e-15 10.6746
1 9.8811 29.2063 10.6746
1 9.88698 29.8985 9.86259
1 9.1185 29.1738 9.88136
1 10.6748 3.55271e-15 10.6746
1 11.4685 29.2063 10.6746
1 11.47 29.9527 9.84316
1 10.6729 29.1712 9.9123
1 12.2622 3.55271e-15 10.6746
1 13.0559 29.2063 10.6746
1 13.0536 29.9283 9.84077
1 12.2733 29.1748 9.85896
1 13.8496 3.55271e-15 10.6746
1 14.6433 29.2063 10.6746
1 14.6253 29.9356 9.8684
1 13.8428 29.1819 9.89196
1 15.437 3.55271e-15 10.6746
1 16.2307 29.2063 10.6746
1 16.213 29.9428 9.83131
1 15.4475 29.1969 9.8894
1 17.0244 3.55271e-15 10.6746
1 17.8181 29.2063 10.6746
1 17.797 29.9217 9.83448
1 17.0149 29.1871 9.87694
1 18.6118 3.55271e-15 10.6746
1 19.4055 29.2063 10.6746
1 19.3957 29.9315 9.84665
1 18.6166 29.1355 9.85897
1 20.1992 3.55271e-15 10.6746
1 20.9929 29.2063 10.6746
1 20.9765 29.9377 9.84705
1 20.1875 29.1748 9.86697
1 21.7866 3.55271e-15 10.6746
1 22.5803 29.2063 10.6746
1 22.5779 29.9236 9.8714
1 21.7783 29.1857 9.8587
1 23.374 3.55271e-15 10.6746
1 24.1677 29.2063 10.6746
1 24.1698 29.9184 9.83297
1 23.3544 29.1846 9.89002
1 24.9614 3.55271e-15 10.6746
1 25.7551 29.2063 10.6746
1 25.7777 29.9233 9.86981
1 24.9776 29.17 9.8647
1 26.5488 3.55271e-15 10.6746
1 27.3425 29.2063 10.6746
1 27.3677 29.939 9.85688
1 26.5603 29.1791 9.88074
1 28.1362 3.55271e-15 10.6746
1 28.9299 29.2063 10.6746
1 28.932 29.9298 9.8725
1 28.1534 29.1367 9.8728
1 29.7236 3.55271e-15 10.6746
1 0.517315 29.2063 10.6746
1 0.509708 29.9369 9.85227
1 29.7037 29.1789 9.88261
1 1.31102 3.55271e-15 10.6746
1 2.10472 29.2063 10.6746
1 2.11457 29.9393 9.87788
1 1.29593 29.1771 9.89047
1 2.89842 3.55271e-15 10.6746
1 3.69212 29.2063 10.6746
1 3.68179 29.9462 9.84406
1 2.89682 29.2028 9.89637
1 4.48582 3.55271e-15 10.6746
1 5.27952 29.2063 10.6746
1 5.26222 29.9429 9.83593
1 4.47382 29.192 9.85597
1 6.07322 3.55271e-15 10.6746
1 6.86692 29.2063 10.6746
1 6.77947 29.9372 9.81678
1 6.05048 29.149 9.87932
1 7.5 28.4126 10.6746
1 8.2937 27.6189 10.6746
1 8.34358 28.3799 9.85404
1 7.56454 27.629 9.83882
1 9.0874 28.4126 10.6746
1 9.8811 27.6189 10.6746
1 9.89832 28.4183 9.87279
1 9.12954 27.6088 9.87085
1 10.6748 28.4126 10.6746
1 11.4685 27.6189 10.6746
1 11.4924 28.3985 9.90116
1 10.67 27.6079 9.87154
1 12.2622 28.4126 10.6746
1 13.0559 27.6189 10.6746
1 13.0569 28.3713 9.85213
1 12.2816 27.613 9.8686
1 13.8496 28.4126 10.6746
1 14.6433 27.6189 10.6746
1 14.6457 28.4088 9.89202
1 13.8367 27.5993 9.90478
1 15.437 28.4126 10.6746
1 16.2307 27.6189 10.6746
1 16.2341 28.3888 9.88347
1 15.4372 27.6148 9.87086
1 17.0244 28.4126 10.6746
1 17.8181 27.6189 10.6746
1 17.8178 28.3803 9.87722
1 17.0328 27.5924 9.88465
1 18.6118 28.4126 10.6746
1 19.4055 27.6189 10.6746
1 19.3974 28.3722 9.89535
1 18.5981 27.6206 9.86215
1 20.1992 28.4126 10.6746
1 20.9929 27.6189 10.6746
1 20.9917 28.3917 9.90106
1 20.1864 27.6145 9.86729
1 21.7866 28.4126 10.6746
1 22.5803 27.6189 10.6746
1 22.5658 28.3894 9.88757
1 21.7479 27.6004 9.8667
1 23.374 28.4126 10.6746
1 24.1677 27.6189 10.6746
1 24.1524 28.3955 9.87707
1 23.3942 27.5995 9.88252
1 24.9614 28.4126 10.6746
1 25.7551 27.6189 10.6746
1 25.7512 28.3882 9.86358
1 24.9581 27.6148 9.87947
1 26.5488 28.4126 10.6746
1 27.3425 27.6189 10.6746
1 27.325 28.3699 9.90117
1 26.5579 27.602 9.87081
1 28.1362 28.4126 10.6746
1 28.9299 27.6189 10.6746
1 28.9574 28.3883 9.85776
1 28.1405 27.6183 9.88538
1 29.7236 28.4126 10.6746
1 0.517315 27.6189 10.6746
1 0.508257 28.3912 9.8939
1 29.7316 27.5967 9.88778
1 1.31102 28.4126 10.6746
1 2.10472 27.6189 10.6746
1 2.06583 28.418 9.90786
1 1.28832 27.6096 9.87256
1 2.89842 28.4126 10.6746
1 3.69212 27.6189 10.6746
1 3.66354 28.3958 9.87806
1 2.87045 27.6333 9.89452
1 4.48582 28.4126 10.6746
1 5.27952 27.6189 10.6746
1 5.25666 28.3989 9.86426
1 4.48621 27.6342 9.87892
1 6.07322 28.4126 10.6746
1 6.86692 27.6189 10.6746
1 6.8032 28.3778 9.84687
1 6.01846 27.6294 9.86881
1 7.5 26.8252 10.6746
1 8.2937 26.0315 10.6746
1 8.33312 26.8306 9.87702
1 7.57189 26.0228 9.84289
1 9.0874 26.8252 10.6746
1 9.8811 26.0315 10.6746
1 9.90525 26.82 9.88385
1 9.10908 26.0384 9.87737
1 10.6748 26.8252 10.6746
1 11.4685 26.0315 10.6746
1 11.4849 26.8196 9.8849
1 10.6847 26.026 9.88694
1 12.2622 26.8252 10.6746
1 13.0559 26.0315 10.6746
1 13.0386 26.8458 9.88888
1 12.2681 26.0395 9.88254
1 13.8496 26.8252 10.6746
1 14.6433 26.0315 10.6746
1 14.6311 26.8369 9.89057
1 13.8415 26.0525 9.87729
1 15.437 26.8252 10.6746
1 16.2307 26.0315 10.6746
1 16.2201 26.8085 9.89601
1 15.4236 26.0342 9.88074
1 17.0244 26.8252 10.6746
1 17.8181 26.0315 10.6746
1 17.8283 26.8077 9.88142
1 17.0212 26.0554 9.90335
1 18.6118 26.8252 10.6746
1 19.4055 26.0315 10.6746
1 19.3876 26.804 9.89578
1 18.6008 26.0288 9.87907
1 20.1992 26.8252 10.6746
1 20.9929 26.0315 10.6746
1 20.9852 26.8053 9.87251
1 20.1966 26.0417 9.8694
1 21.7866 26.8252 10.6746
1 22.5803 26.0315 10.6746
1 22.5723 26.8223 9.88964
1 21.81 26.0323 9.88157
1 23.374 26.8252 10.6746
1 24.1677 26.0315 10.6746
1 24.1471 26.7987 9.87978
1 23.3849 26.0413 9.86752
1 24.9614 26.8252 10.6746
1 25.7551 26.0315 10.6746
1 25.7462 26.8431 9.85756
1 24.9666 26.0256 9.89139
1 26.5488 26.8252 10.6746
1 27.3425 26.0315 10.6746
1 27.3282 26.8195 9.87563
1 26.5497 26.0157 9.86731
1 28.1362 26.8252 10.6746
1 28.9299 26.0315 10.6746
1 28.9177 26.8216 9.87835
1 28.1397 26.0349 9.87958
1 29.7236 26.8252 10.6746
1 0.517315 26.0315 10.6746
1 0.507323 26.8198 9.87075
1 29.7119 26.0306 9.87015
1 1.31102 26.8252 10.6746
1 2.10472 26.0315 10.6746
1 2.06763 26.7904 9.87146
1 1.32402 26.0207 9.90721
1 2.89842 26.8252 10.6746
1 3.69212 26.0315 10.6746
1 3.70229 26.8193 9.87558
1 2.91874 26.0184 9.86182
1 4.48582 26.8252 10.6746
1 5.27952 26.0315 10.6746
1 5.23074 26.8125 9.86755
1 4.46027 26.0096 9.86822
1 6.07322 26.8252 10.6746
1 6.86692 26.0315 10.6746
1 6.801 26.8303 9.87264
1 6.0193 26.0339 9.87394
1 7.5 25.2378 10.6746
1 8.2937 24.4441 10.6746
1 8.33909 25.2224 9.87644
1 7.56529 24.4472 9.85123
1 9.0874 25.2378 10.6746
1 9.8811 24.4441 10.6746
1 9.87541 25.2453 9.88944
1 9.10114 24.4684 9.88438
1 10.6748 25.2378 10.6746
1 11.4685 24.4441 10.6746
1 11.4773 25.257 9.85866
1 10.6938 24.4461 9.87678
1 12.2622 25.2378 10.6746
1 13.0559 24.4441 10.6746
1 13.0618 25.253 9.88737
1 12.2521 24.4502 9.87248
1 13.8496 25.2378 10.6746
1 14.6433 24.4441 10.6746
1 14.6308 25.2525 9.89235
1 13.8436 24.4694 9.89035
1 15.437 25.2378 10.6746
1 16.2307 24.4441 10.6746
1 16.2143 25.2431 9.85922
1 15.4361 24.4453 9.88827
1 17.0244 25.2378 10.6746
1 17.8181 24.4441 10.6746
1 17.8364 25.2434 9.88002
1 17.0213 24.4357 9.88109
1 18.6118 25.2378 10.6746
1 19.4055 24.4441 10.6746
1 19.3953 25.2084 9.89062
1 18.6137 24.4404 9.88625
1 20.1992 25.2378 10.6746
1 20.9929 24.4441 10.6746
1 20.9577 25.2114 9.85531
1 20.1932 24.4289 9.88199
1 21.7866 25.2378 10.6746
1 22.5803 24.4441 10.6746
1 22.5824 25.245 9.8923
1 21.7641 24.4572 9.88647
1 23.374 25.2378 10.6746
1 24.1677 24.4441 10.6746
1 24.1804 25.2194 9.87659
1 23.3761 24.4541 9.89968
1 24.9614 25.2378 10.6746
1 25.7551 24.4441 10.6746
1 25.7407 25.2227 9.90908
1 24.9273 24.4489 9.89573
1 26.5488 25.2378 10.6746
1 27.3425 24.4441 10.6746
1 27.3251 25.2325 9.87152
1 26.551 24.4465 9.89522
1 28.1362 25.2378 10.6746
1 28.9299 24.4441 10.6746
1 28.9392 25.218 9.89064
1 28.1243 24.4729 9.86795
1 29.7236 25.2378 10.6746
1 0.517315 24.4441 10.6746
1 0.5133 25.2275 9.8742
1 29.7429 24.4415 9.87463
1 1.31102 25.2378 10.6746
1 2.10472 24.4441 10.6746
1 2.11604 25.2328 9.89888
1 1.30941 24.4529 9.87298
1 2.89842 25.2378 10.6746
1 3.69212 24.4441 10.6746
1 3.70776 25.2138 9.88039
1 2.88619 24.415 9.90094
1 4.48582 25.2378 10.6746
1 5.27952 24.4441 10.6746
1 5.25014 25.2371 9.89149
1 4.47313 24.4529 9.87922
1 6.07322 25.2378 10.6746
1 6.86692 24.4441 10.6746
1 6.78411 25.243 9.84017
1 6.05716 24.4256 9.86587
1 7.5 23.6504 10.6746
1 8.2937 22.8567 10.6746
1 8.31896 23.657 9.8905
1 7.55662 22.8435 9.86
1 9.0874 23.6504 10.6746
1 9.8811 22.8567 10.6746
1 9.87605 23.6697 9.86324
1 9.11748 22.8618 9.87501
1 10.6748 23.6504 10.6746
1 11.4685 22.8567 10.6746
1 11.4598 23.6546 9.8802
1 10.6684 22.8778 9.89119
1 12.2622 23.6504 10.6746
1 13.0559 22.8567 10.6746
1 13.0553 23.6323 9.89058
1 12.2712 22.8702 9.87618
1 13.8496 23.6504 10.6746
1 14.6433 22.8567 10.6746
1 14.6444 23.6476 9.88631
1 13.8522 22.8366 9.86995
1 15.437 23.6504 10.6746
1 16.2307 22.8567 10.6746
1 16.2483 23.6382 9.87413
1 15.4467 22.8573 9.87586
1 17.0244 23.6504 10.6746
1 17.8181 22.8567 10.6746
1 17.8 23.6277 9.87844
1 17.0405 22.8599 9.903
1 18.6118 23.6504 10.6746
1 19.4055 22.8567 10.6746
1 19.4096 23.6468 9.86568
1 18.6101 22.8597 9.90079
1 20.1992 23.6504 10.6746
1 20.9929 22.8567 10.6746
1 20.9941 23.6091 9.90078
1 20.2018 22.8587 9.86208
1 21.7866 23.6504 10.6746
1 22.5803 22.8567 10.6746
1 22.5742 23.6662 9.91747
1 21.7747 22.8815 9.90034
1 23.374 23.6504 10.6746
1 24.1677 22.8567 10.6746
1 24.1747 23.6284 9.90381
1 23.3729 22.8621 9.88611
1 24.9614 23.6504 10.6746
1 25.7551 22.8567 10.6746
1 25.7462 23.6359 9.88487
1 24.9589 22.8641 9.88507
1 26.5488 23.6504 10.6746
1 27.3425 22.8567 10.6746
1 27.3495 23.6682 9.91388
1 26.5668 22.8677 9.86285
1 28.1362 23.6504 10.6746
1 28.9299 22.8567 10.6746
1 28.902 23.6596 9.89855
1 28.1149 22.8922 9.8906
1 29.7236 23.6504 10.6746
1 0.517315 22.8567 10.6746
1 0.532739 23.6187 9.89983
1 29.7145 22.8829 9.88651
1 1.31102 23.6504 10.6746
1 2.10472 22.8567 10.6746
1 2.09222 23.6442 9.90164
1 1.29677 22.8493 9.89974
1 2.89842 23.6504 10.6746
1 3.69212 22.8567 10.6746
1 3.68125 23.6298 9.88256
1 2.88219 22.8619 9.89297
1 4.48582 23.6504 10.6746
1 5.27952 22.8567 10.6746
1 5.27284 23.6365 9.87405
1 4.47786 22.8436 9.87062
1 6.07322 23.6504 10.6746
1 6.86692 22.8567 10.6746
1 6.82102 23.6706 9.84328
1 6.06801 22.8597 9.86722
1 7.5 22.063 10.6746
1 8.2937 21.2693 10.6746
1 8.33289 22.0815 9.89303
1 7.54035 21.2465 9.84164
1 9.0874 22.063 10.6746
1 9.8811 21.2693 10.6746
1 9.89606 22.0508 9.86823
1 9.09022 21.2628 9.84702
1 10.6748 22.063 10.6746
1 11.4685 21.2693 10.6746
1 11.476 22.0674 9.88212
1 10.6833 21.2707 9.86408
1 12.2622 22.063 10.6746
1 13.0559 21.2693 10.6746
1 13.0454 22.0697 9.89413
1 12.281 21.2852 9.90153
1 13.8496 22.063 10.6746
1 14.6433 21.2693 10.6746
1 14.6409 22.0445 9.89142
1 13.8509 21.2719 9.88306
1 15.437 22.063 10.6746
1 16.2307 21.2693 10.6746
1 16.241 22.0774 9.87479
1 15.4616 21.2471 9.86593
1 17.0244 22.063 10.6746
1 17.8181 21.2693 10.6746
1 17.8185 22.0733 9.88486
1 17.026 21.2687 9.87709
1 18.6118 22.063 10.6746
1 19.4055 21.2693 10.6746
1 19.4045 22.0488 9.87621
1 18.5869 21.2689 9.88781
1 20.1992 22.063 10.6746
1 20.9929 21.2693 10.6746
1 21.004 22.0874 9.88251
1 20.201 21.2638 9.88437
1 21.7866 22.063 10.6746
1 22.5803 21.2693 10.6746
1 22.5768 22.0587 9.90936
1 21.7598 21.2864 9.88961
1 23.374 22.063 10.6746
1 24.1677 21.2693 10.6746
1 24.1693 22.048 9.87221
1 23.3695 21.266 9.88988
1 24.9614 22.063 10.6746
1 25.7551 21.2693 10.6746
1 25.7596 22.051 9.87255
1 24.941 21.2855 9.86373
1 26.5488 22.063 10.6746
1 27.3425 21.2693 10.6746
1 27.3365 22.0656 9.87461
1 26.5545 21.2709 9.91113
1 28.1362 22.063 10.6746
1 28.9299 21.2693 10.6746
1 28.9462 22.0674 9.87276
1 28.1318 21.264 9.8727
1 29.7236 22.063 10.6746
1 0.517315 21.2693 10.6746
1 0.495199 22.0956 9.8868
1 29.7226 21.2574 9.90875
1 1.31102 22.063 10.6746
1 2.10472 21.2693 10.6746
1 2.07305 22.0564 9.888
1 1.29574 21.2821 9.86215
1 2.89842 22.063 10.6746
1 3.69212 21.2693 10.6746
1 3.67415 22.0897 9.89533
1 2.88925 21.3 9.88606
1 4.48582 22.063 10.6746
1 5.27952 21.2693 10.6746
1 5.2909 22.0562 9.86548
1 4.48195 21.2932 9.88714
1 6.07322 22.063 10.6746
1 6.86692 21.2693 10.6746
1 6.82017 22.0294 9.85142
1 6.04376 21.2522 9.85075
1 7.5 20.4756 10.6746
1 8.2937 19.6819 10.6746
1 8.31942 20.4702 9.84788
1 7.58571 19.697 9.81876
1 9.0874 20.4756 10.6746
1 9.8811 19.6819 10.6746
1 9.85927 20.4955 9.87279
1 9.10663 19.7088 9.8622
1 10.6748 20.4756 10.6746
1 11.4685 19.6819 10.6746
1 11.496 20.4846 9.88502
1 10.6882 19.7146 9.8844
1 12.2622 20.4756 10.6746
1 13.0559 19.6819 10.6746
1 13.0561 20.4919 9.91975
1 12.2562 19.6887 9.90066
1 13.8496 20.4756 10.6746
1 14.6433 19.6819 10.6746
1 14.6294 20.475 9.88162
1 13.8492 19.6877 9.86271
1 15.437 20.4756 10.6746
1 16.2307 19.6819 10.6746
1 16.2348 20.4804 9.87709
1 15.4461 19.6848 9.89657
1 17.0244 20.4756 10.6746
1 17.8181 19.6819 10.6746
1 17.8423 20.4738 9.87584
1 17.0366 19.6806 9.88053
1 18.6118 20.4756 10.6746
1 19.4055 19.6819 10.6746
1 19.4071 20.4677 9.8747
1 18.6149 19.6928 9.87759
1 20.1992 20.4756 10.6746
1 20.9929 19.6819 10.6746
1 20.9952 20.4559 9.8948
1 20.1886 19.6808 9.86153
1 21.7866 20.4756 10.6746
1 22.5803 19.6819 10.6746
1 22.5758 20.4666 9.8969
1 21.7852 19.6552 9.85554
1 23.374 20.4756 10.6746
1 24.1677 19.6819 10.6746
1 24.1721 20.484 9.90217
1 23.3693 19.6965 9.91425
1 24.9614 20.4756 10.6746
1 25.7551 19.6819 10.6746
1 25.755 20.4745 9.88228
1 24.9913 19.6765 9.89156
1 26.5488 20.4756 10.6746
1 27.3425 19.6819 10.6746
1 27.3403 20.4489 9.91395
1 26.5294 19.6844 9.87343
1 28.1362 20.4756 10.6746
1 28.9299 19.6819 10.6746
1 28.9257 20.4538 9.85948
1 28.1674 19.6666 9.89618
1 29.7236 20.4756 10.6746
1 0.517315 19.6819 10.6746
1 0.515272 20.4784 9.87725
1 29.7315 19.6687 9.88441
1 1.31102 20.4756 10.6746
1 2.10472 19.6819 10.6746
1 2.10404 20.4839 9.87595
1 1.31366 19.6986 9.88709
1 2.89842 20.4756 10.6746
1 3.69212 19.6819 10.6746
1 3.67721 20.485 9.89907
1 2.90804 19.671 9.89536
1 4.48582 20.4756 10.6746
1 5.27952 19.6819 10.6746
1 5.25788 20.4942 9.89751
1 4.48752 19.6637 9.86278
1 6.07322 20.4756 10.6746
1 6.86692 19.6819 10.6746
1 6.78547 20.4547 9.85429
1 6.03549 19.6909 9.86867
1 7.5 18.8882 10.6746
1 8.2937 18.0945 10.6746
1 8.3332 18.8946 9.85971
1 7.57013 18.1372 9.81953
1 9.0874 18.8882 10.6746
1 9.8811 18.0945 10.6746
1 9.89783 18.8988 9.88298
1 9.1059 18.1 9.88665
1 10.6748 18.8882 10.6746
1 11.4685 18.0945 10.6746
1 11.4757 18.8979 9.89076
1 10.6926 18.1045 9.90503
1 12.2622 18.8882 10.6746
1 13.0559 18.0945 10.6746
1 13.0709 18.885 9.89197
1 12.2708 18.1022 9.90188
1 13.8496 18.8882 10.6746
1 14.6433 18.0945 10.6746
1 14.6557 18.8919 9.87448
1 13.8551 18.0858 9.87071
1 15.437 18.8882 10.6746
1 16.2307 18.0945 10.6746
1 16.2415 18.8671 9.87882
1 15.4314 18.1038 9.90516
1 17.0244 18.8882 10.6746
1 17.8181 18.0945 10.6746
1 17.7874 18.8798 9.88343
1 17.0113 18.071 9.8694
1 18.6118 18.8882 10.6746
1 19.4055 18.0945 10.6746
1 19.3904 18.8829 9.88236
1 18.6205 18.0778 9.87654
1 20.1992 18.8882 10.6746
1 20.9929 18.0945 10.6746
1 20.9785 18.886 9.86633
1 20.2178 18.1089 9.86275
1 21.7866 18.8882 10.6746
1 22.5803 18.0945 10.6746
1 22.571 18.8906 9.88041
1 21.7869 18.0898 9.84378
1 23.374 18.8882 10.6746
1 24.1677 18.0945 10.6746
1 24.1804 18.8857 9.88894
1 23.3519 18.0965 9.88632
1 24.9614 18.8882 10.6746
1 25.7551 18.0945 10.6746
1 25.7579 18.8863 9.89646
1 24.9788 18.105 9.85327
1 26.5488 18.8882 10.6746
1 27.3425 18.0945 10.6746
1 27.3486 18.8895 9.90503
1 26.5508 18.1004 9.882
1 28.1362 18.8882 10.6746
1 28.9299 18.0945 10.6746
1 28.9368 18.8797 9.87279
1 28.1384 18.0904 9.8868
1 29.7236 18.8882 10.6746
1 0.517315 18.0945 10.6746
1 0.537666 18.8983 9.85427
1 29.7229 18.0925 9.86527
1 1.31102 18.8882 10.6746
1 2.10472 18.0945 10.6746
1 2.10204 18.8774 9.91624
1 1.3026 18.0866 9.87086
1 2.89842 18.8882 10.6746
1 3.69212 18.0945 10.6746
1 3.68896 18.8985 9.87928
1 2.91069 18.0745 9.87472
1 4.48582 18.8882 10.6746
1 5.27952 18.0945 10.6746
1 5.28994 18.8697 9.85689
1 4.47293 18.1129 9.89213
1 6.07322 18.8882 10.6746
1 6.86692 18.0945 10.6746
1 6.81673 18.9021 9.8464
1 6.07261 18.0904 9.85884
1 7.5 17.3008 10.6746
1 8.2937 16.5071 10.6746
1 8.30278 17.2988 9.87604
1 7.59062 16.519 9.84535
1 9.0874 17.3008 10.6746
1 9.8811 16.5071 10.6746
1 9.87744 17.3122 9.88376
1 9.0872 16.5264 9.86979
1 10.6748 17.3008 10.6746
1 11.4685 16.5071 10.6746
1 11.434 17.2873 9.88283
1 10.6821 16.4853 9.87838
1 12.2622 17.3008 10.6746
1 13.0559 16.5071 10.6746
1 13.0777 17.2488 9.8734
1 12.2525 16.501 9.87262
1 13.8496 17.3008 10.6746
1 14.6433 16.5071 10.6746
1 14.6553 17.3083 9.89486
1 13.8705 16.4888 9.86462
1 15.437 17.3008 10.6746
1 16.2307 16.5071 10.6746
1 16.2023 17.2924 9.89877
1 15.4362 16.5063 9.8896
1 17.0244 17.3008 10.6746
1 17.8181 16.5071 10.6746
1 17.791 17.2905 9.90192
1 17.0184 16.4972 9.88979
1 18.6118 17.3008 10.6746
1 19.4055 16.5071 10.6746
1 19.4161 17.3016 9.88667
1 18.5948 16.5029 9.87892
1 20.1992 17.3008 10.6746
1 20.9929 16.5071 10.6746
1 20.9693 17.2866 9.87692
1 20.1969 16.4835 9.86487
1 21.7866 17.3008 10.6746
1 22.5803 16.5071 10.6746
1 22.5824 17.3136 9.87111
1 21.7918 16.5297 9.89295
1 23.374 17.3008 10.6746
1 24.1677 16.5071 10.6746
1 24.172 17.3048 9.89287
1 23.382 16.5154 9.88912
1 24.9614 17.3008 10.6746
1 25.7551 16.5071 10.6746
1 25.774 17.3068 9.88927
1 24.9582 16.5091 9.85516
1 26.5488 17.3008 10.6746
1 27.3425 16.5071 10.6746
1 27.3492 17.3011 9.90951
1 26.5501 16.5006 9.88709
1 28.1362 17.3008 10.6746
1 28.9299 16.5071 10.6746
1 28.907 17.3237 9.87376
1 28.1496 16.5193 9.88847
1 29.7236 17.3008 10.6746
1 0.517315 16.5071 10.6746
1 0.503669 17.2941 9.86794
1 29.7118 16.4967 9.87006
1 1.31102 17.3008 10.6746
1 2.10472 16.5071 10.6746
1 2.08892 17.3001 9.89283
1 1.28365 16.4703 9.87114
1 2.89842 17.3008 10.6746
1 3.69212 16.5071 10.6746
1 3.71521 17.2991 9.88613
1 2.91634 16.5255 9.89111
1 4.48582 17.3008 10.6746
1 5.27952 16.5071 10.6746
1 5.27789 17.3113 9.89983
1 4.46589 16.5204 9.88351
1 6.07322 17.3008 10.6746
1 6.86692 16.5071 10.6746
1 6.82074 17.3052 9.84483
1 6.06044 16.5024 9.8918
1 7.5 15.7134 10.6746
1 8.2937 14.9197 10.6746
1 8.29591 15.6965 9.86968
1 7.5849 14.9333 9.84062
1 9.0874 15.7134 10.6746
1 9.8811 14.9197 10.6746
1 9.88802 15.6817 9.89268
1 9.06871 14.9104 9.88386
1 10.6748 15.7134 10.6746
1 11.4685 14.9197 10.6746
1 11.491 15.7276 9.88941
1 10.679 14.8987 9.8893
1 12.2622 15.7134 10.6746
1 13.0559 14.9197 10.6746
1 13.0582 15.7095 9.87001
1 12.2685 14.9229 9.88243
1 13.8496 15.7134 10.6746
1 14.6433 14.9197 10.6746
1 14.647 15.6832 9.88745
1 13.8694 14.9111 9.89146
1 15.437 15.7134 10.6746
1 16.2307 14.9197 10.6746
1 16.2228 15.7028 9.89464
1 15.437 14.9237 9.89097
1 17.0244 15.7134 10.6746
1 17.8181 14.9197 10.6746
1 17.8186 15.7127 9.83947
1 17.0414 14.942 9.89393
1 18.6118 15.7134 10.6746
1 19.4055 14.9197 10.6746
1 19.3677 15.7004 9.89135
1 18.6129 14.9381 9.87607
1 20.1992 15.7134 10.6746
1 20.9929 14.9197 10.6746
1 20.9981 15.7254 9.87059
1 20.1771 14.9189 9.87712
1 21.7866 15.7134 10.6746
1 22.5803 14.9197 10.6746
1 22.5806 15.7294 9.91425
1 21.7879 14.9318 9.90569
1 23.374 15.7134 10.6746
1 24.1677 14.9197 10.6746
1 24.1764 15.7184 9.87994
1 23.3703 14.9298 9.88909
1 24.9614 15.7134 10.6746
1 25.7551 14.9197 10.6746
1 25.7375 15.7218 9.87214
1 24.9415 14.9102 9.88569
1 26.5488 15.7134 10.6746
1 27.3425 14.9197 10.6746
1 27.3455 15.7075 9.88864
1 26.5508 14.9018 9.90524
1 28.1362 15.7134 10.6746
1 28.9299 14.9197 10.6746
1 28.933 15.7231 9.88427
1 28.1407 14.9253 9.90601
1 29.7236 15.7134 10.6746
1 0.517315 14.9197 10.6746
1 0.504686 15.7076 9.89474
1 29.7229 14.9214 9.90367
1 1.31102 15.7134 10.6746
1 2.10472 14.9197 10.6746
1 2.10079 15.7109 9.89986
1 1.27978 14.8823 9.89459
1 2.89842 15.7134 10.6746
1 3.69212 14.9197 10.6746
1 3.67918 15.7377 9.89889
1 2.9091 14.9175 9.88541
1 4.48582 15.7134 10.6746
1 5.27952 14.9197 10.6746
1 5.29833 15.7213 9.88044
1 4.47904 14.947 9.88958
1 6.07322 15.7134 10.6746
1 6.86692 14.9197 10.6746
1 6.83632 15.7204 9.83015
1 6.02184 14.921 9.89371
1 7.5 14.126 10.6746
1 8.2937 13.3323 10.6746
1 8.31469 14.145 9.87215
1 7.58543 13.3311 9.86403
1 9.0874 14.126 10.6746
1 9.8811 13.3323 10.6746
1 9.88674 14.136 9.89534
1 9.08596 13.3542 9.85892
1 10.6748 14.126 10.6746
1 11.4685 13.3323 10.6746
1 11.4722 14.1297 9.85391
1 10.6937 13.3471 9.86733
1 12.2622 14.126 10.6746
1 13.0559 13.3323 10.6746
1 13.0432 14.141 9.8969
1 12.2416 13.339 9.8636
1 13.8496 14.126 10.6746
1 14.6433 13.3323 10.6746
1 14.6591 14.1123 9.88222
1 13.8457 13.3181 9.8946
1 15.437 14.126 10.6746
1 16.2307 13.3323 10.6746
1 16.247 14.1361 9.88811
1 15.4471 13.3314 9.85969
1 17.0244 14.126 10.6746
1 17.8181 13.3323 10.6746
1 17.8208 14.1415 9.86541
1 17.0241 13.3259 9.86542
1 18.6118 14.126 10.6746
1 19.4055 13.3323 10.6746
1 19.4131 14.1184 9.88042
1 18.598 13.3245 9.86577
1 20.1992 14.126 10.6746
1 20.9929 13.3323 10.6746
1 20.9911 14.1165 9.87586
1 20.183 13.3437 9.88895
1 21.7866 14.126 10.6746
1 22.5803 13.3323 10.6746
1 22.6 14.144 9.86122
1 21.7619 13.338 9.85589
1 23.374 14.126 10.6746
1 24.1677 13.3323 10.6746
1 24.178 14.1018 9.87718
1 23.3462 13.3488 9.87886
1 24.9614 14.126 10.6746
1 25.7551 13.3323 10.6746
1 25.743 14.1116 9.88478
1 24.968 13.3201 9.89985
1 26.5488 14.126 10.6746
1 27.3425 13.3323 10.6746
1 27.3392 14.1229 9.87775
1 26.5163 13.3474 9.87393
1 28.1362 14.126 10.6746
1 28.9299 13.3323 10.6746
1 28.9297 14.1262 9.87889
1 28.1194 13.3484 9.88095
1 29.7236 14.126 10.6746
1 0.517315 13.3323 10.6746
1 0.524999 14.1221 9.87811
1 29.7242 13.3414 9.88172
1 1.31102 14.126 10.6746
1 2.10472 13.3323 10.6746
1 2.12121 14.1535 9.87582
1 1.32024 13.3651 9.89922
1 2.89842 14.126 10.6746
1 3.69212 13.3323 10.6746
1 3.68153 14.1419 9.85534
1 2.90138 13.3389 9.8853
1 4.48582 14.126 10.6746
1 5.27952 13.3323 10.6746
1 5.26515 14.1326 9.87942
1 4.47952 13.3602 9.87237
1 6.07322 14.126 10.6746
1 6.86692 13.3323 10.6746
1 6.79841 14.1292 9.871
1 6.05015 13.3342 9.89385
1 7.5 12.5386 10.6746
1 8.2937 11.7449 10.6746
1 8.32715 12.545 9.85323
1 7.54748 11.7333 9.85319
1 9.0874 12.5386 10.6746
1 9.8811 11.7449 10.6746
1 9.89822 12.5518 9.87871
1 9.10084 11.7737 9.86329
1 10.6748 12.5386 10.6746
1 11.4685 11.7449 10.6746
1 11.4929 12.542 9.87888
1 10.6795 11.7477 9.88892
1 12.2622 12.5386 10.6746
1 13.0559 11.7449 10.6746
1 13.0481 12.5214 9.90114
1 12.2777 11.7317 9.88616
1 13.8496 12.5386 10.6746
1 14.6433 11.7449 10.6746
1 14.6569 12.5454 9.86033
1 13.8531 11.7588 9.8988
1 15.437 12.5386 10.6746
1 16.2307 11.7449 10.6746
1 16.2237 12.5382 9.87111
1 15.4709 11.7361 9.88922
1 17.0244 12.5386 10.6746
1 17.8181 11.7449 10.6746
1 17.8115 12.5611 9.88432
1 17.0414 11.7501 9.89848
1 18.6118 12.5386 10.6746
1 19.4055 11.7449 10.6746
1 19.3943 12.5364 9.86161
1 18.6127 11.7441 9.87383
1 20.1992 12.5386 10.6746
1 20.9929 11.7449 10.6746
1 21.0087 12.5525 9.88691
1 20.2097 11.745 9.88845
1 21.7866 12.5386 10.6746
1 22.5803 11.7449 10.6746
1 22.5686 12.5442 9.88805
1 21.8091 11.7469 9.87052
1 23.374 12.5386 10.6746
1 24.1677 11.7449 10.6746
1 24.1791 12.5442 9.89705
1 23.3473 11.7466 9.88537
1 24.9614 12.5386 10.6746
1 25.7551 11.7449 10.6746
1 25.7325 12.5619 9.88109
1 24.9495 11.7416 9.87927
1 26.5488 12.5386 10.6746
1 27.3425 11.7449 10.6746
1 27.326 12.534 9.8867
1 26.5288 11.7295 9.89077
1 28.1362 12.5386 10.6746
1 28.9299 11.7449 10.6746
1 28.938 12.5169 9.89774
1 28.1379 11.7397 9.88585
1 29.7236 12.5386 10.6746
1 0.517315 11.7449 10.6746
1 0.540161 12.5411 9.89714
1 29.7038 11.7276 9.88735
1 1.31102 12.5386 10.6746
1 2.10472 11.7449 10.6746
1 2.08396 12.5556 9.87448
1 1.3116 11.7304 9.87997
1 2.89842 12.5386 10.6746
1 3.69212 11.7449 10.6746
1 3.67113 12.5625 9.90649
1 2.89389 11.7356 9.90724
1 4.48582 12.5386 10.6746
1 5.27952 11.7449 10.6746
1 5.25494 12.5411 9.8798
1 4.45968 11.739 9.90521
1 6.07322 12.5386 10.6746
1 6.86692 11.7449 10.6746
1 6.79916 12.5293 9.82791
1 6.04287 11.7456 9.87512
1 7.5 10.9512 10.6746
1 8.2937 10.1575 10.6746
1 8.34084 10.9461 9.87508
1 7.58861 10.1377 9.83016
1 9.0874 10.9512 10.6746
1 9.8811 10.1575 10.6746
1 9.88736 10.9354 9.87854
1 9.13624 10.1404 9.84552
1 10.6748 10.9512 10.6746
1 11.4685 10.1575 10.6746
1 11.4634 10.9564 9.88319
1 10.692 10.1686 9.87174
1 12.2622 10.9512 10.6746
1 13.0559 10.1575 10.6746
1 13.0773 10.931 9.89072
1 12.2772 10.1544 9.88826
1 13.8496 10.9512 10.6746
1 14.6433 10.1575 10.6746
1 14.6624 10.9411 9.86381
1 13.8671 10.1419 9.87912
1 15.437 10.9512 10.6746
1 16.2307 10.1575 10.6746
1 16.2402 10.9578 9.8602
1 15.4324 10.159 9.88726
1 17.0244 10.9512 10.6746
1 17.8181 10.1575 10.6746
1 17.8579 10.9406 9.89335
1 17.001 10.1544 9.87791
1 18.6118 10.9512 10.6746
1 19.4055 10.1575 10.6746
1 19.4131 10.9481 9.89435
1 18.633 10.1395 9.89057
1 20.1992 10.9512 10.6746
1 20.9929 10.1575 10.6746
1 20.9915 10.9503 9.8885
1 20.2079 10.1502 9.86616
1 21.7866 10.9512 10.6746
1 22.5803 10.1575 10.6746
1 22.5859 10.9572 9.86684
1 21.7876 10.1471 9.86725
1 23.374 10.9512 10.6746
1 24.1677 10.1575 10.6746
1 24.1513 10.9277 9.89823
1 23.3492 10.1499 9.86833
1 24.9614 10.9512 10.6746
1 25.7551 10.1575 10.6746
1 25.7476 10.9258 9.88446
1 24.9687 10.146 9.88872
1 26.5488 10.9512 10.6746
1 27.3425 10.1575 10.6746
1 27.3459 10.94 9.87147
1 26.5658 10.1534 9.85809
1 28.1362 10.9512 10.6746
1 28.9299 10.1575 10.6746
1 28.9374 10.9586 9.90251
1 28.1435 10.1666 9.90647
1 29.7236 10.9512 10.6746
1 0.517315 10.1575 10.6746
1 0.520194 10.9392 9.88907
1 29.7424 10.1704 9.89533
1 1.31102 10.9512 10.6746
1 2.10472 10.1575 10.6746
1 2.0822 10.9407 9.87599
1 1.31589 10.1502 9.89518
1 2.89842 10.9512 10.6746
1 3.69212 10.1575 10.6746
1 3.66879 10.934 9.89415
1 2.89884 10.1899 9.8586
1 4.48582 10.9512 10.6746
1 5.27952 10.1575 10.6746
1 5.25909 10.961 9.87811
1 4.47453 10.1595 9.85559
1 6.07322 10.9512 10.6746
1 6.86692 10.1575 10.6746
1 6.81819 10.9289 9.85199
1 6.0425 10.1564 9.86346
1 7.5 9.36379 10.6746
1 8.2937 8.57009 10.6746
1 8.31498 9.37125 9.86159
1 7.56104 8.56243 9.85678
1 9.0874 9.36379 10.6746
1 9.8811 8.57009 10.6746
1 9.89545 9.32902 9.86767
1 9.08241 8.59611 9.88099
1 10.6748 9.36379 10.6746
1 11.4685 8.57009 10.6746
1 11.4854 9.36576 9.89803
1 10.6849 8.55004 9.89577
1 12.2622 9.36379 10.6746
1 13.0559 8.57009 10.6746
1 13.0677 9.36327 9.86342
1 12.2596 8.56942 9.87996
1 13.8496 9.36379 10.6746
1 14.6433 8.57009 10.6746
1 14.6612 9.36499 9.89544
1 13.8475 8.57753 9.87633
1 15.437 9.36379 10.6746
1 16.2307 8.57009 10.6746
1 16.2158 9.37355 9.89593
1 15.4299 8.56709 9.88932
1 17.0244 9.36379 10.6746
1 17.8181 8.57009 10.6746
1 17.817 9.36703 9.90618
1 17.0287 8.56332 9.8903
1 18.6118 9.36379 10.6746
1 19.4055 8.57009 10.6746
1 19.3752 9.38468 9.88128
1 18.5782 8.54854 9.86716
1 20.1992 9.36379 10.6746
1 20.9929 8.57009 10.6746
1 21.0119 9.34653 9.86686
1 20.2041 8.53437 9.88247
1 21.7866 9.36379 10.6746
1 22.5803 8.57009 10.6746
1 22.576 9.34339 9.85248
1 21.7994 8.55875 9.87538
1 23.374 9.36379 10.6746
1 24.1677 8.57009 10.6746
1 24.1871 9.35296 9.90485
1 23.3753 8.55295 9.87004
1 24.9614 9.36379 10.6746
1 25.7551 8.57009 10.6746
1 25.7644 9.36423 9.89482
1 24.9704 8.54655 9.89908
1 26.5488 9.36379 10.6746
1 27.3425 8.57009 10.6746
1 27.3499 9.35752 9.88733
1 26.5482 8.55858 9.89175
1 28.1362 9.36379 10.6746
1 28.9299 8.57009 10.6746
1 28.9363 9.36088 9.89775
1 28.1559 8.574 9.88139
1 29.7236 9.36379 10.6746
1 0.517315 8.57009 10.6746
1 0.511633 9.37088 9.85994
1 29.6976 8.57144 9.88928
1 1.31102 9.36379 10.6746
1 2.10472 8.57009 10.6746
1 2.13378 9.37905 9.90208
1 1.32656 8.58656 9.86826
1 2.89842 9.36379 10.6746
1 3.69212 8.57009 10.6746
1 3.68423 9.35461 9.91806
1 2.89266 8.57587 9.8743
1 4.48582 9.36379 10.6746
1 5.27952 8.57009 10.6746
1 5.25287 9.3779 9.87755
1 4.47156 8.59625 9.88504
1 6.07322 9.36379 10.6746
1 6.86692 8.57009 10.6746
1 6.85044 9.35725 9.83125
1 6.03758 8.58276 9.85355
1 7.5 7.77639 10.6746
1 8.2937 6.98268 10.6746
1 8.32053 7.78738 9.8689
1 7.54827 6.99852 9.84107
1 9.0874 7.77639 10.6746
1 9.8811 6.98268 10.6746
1 9.87697 7.78742 9.87337
1 9.10304 6.99531 9.853
1 10.6748 7.77639 10.6746
1 11.4685 6.98268 10.6746
1 11.471 7.73776 9.8729
1 10.6901 6.99745 9.87468
1 12.2622 7.77639 10.6746
1 13.0559 6.98268 10.6746
1 13.0623 7.78055 9.89932
1 12.2859 6.98853 9.90575
1 13.8496 7.77639 10.6746
1 14.6433 6.98268 10.6746
1 14.6407 7.7923 9.86327
1 13.8422 6.99891 9.88355
1 15.437 7.77639 10.6746
1 16.2307 6.98268 10.6746
1 16.2349 7.78134 9.87606
1 15.4252 6.97943 9.89059
1 17.0244 7.77639 10.6746
1 17.8181 6.98268 10.6746
1 17.7805 7.75547 9.8815
1 16.9993 6.94812 9.89895
1 18.6118 7.77639 10.6746
1 19.4055 6.98268 10.6746
1 19.4115 7.78745 9.85804
1 18.5964 6.98302 9.87993
1 20.1992 7.77639 10.6746
1 20.9929 6.98268 10.6746
1 20.9966 7.79709 9.87864
1 20.1919 6.99254 9.86358
1 21.7866 7.77639 10.6746
1 22.5803 6.98268 10.6746
1 22.5893 7.76844 9.85636
1 21.7783 6.98249 9.88218
1 23.374 7.77639 10.6746
1 24.1677 6.98268 10.6746
1 24.1766 7.77987 9.88409
1 23.3898 6.98143 9.86105
1 24.9614 7.77639 10.6746
1 25.7551 6.98268 10.6746
1 25.7562 7.7809 9.8969
1 24.9662 6.97662 9.88466
1 26.5488 7.77639 10.6746
1 27.3425 6.98268 10.6746
1 27.3427 7.79161 9.85991
1 26.5675 6.97406 9.87362
1 28.1362 7.77639 10.6746
1 28.9299 6.98268 10.6746
1 28.9147 7.77317 9.88432
1 28.1307 7.00592 9.87264
1 29.7236 7.77639 10.6746
1 0.517315 6.98268 10.6746
1 0.507042 7.8099 9.89392
1 29.7328 6.98402 9.89606
1 1.31102 7.77639 10.6746
1 2.10472 6.98268 10.6746
1 2.10473 7.78273 9.87818
1 1.29351 6.99634 9.88364
1 2.89842 7.77639 10.6746
1 3.69212 6.98268 10.6746
1 3.66977 7.76786 9.88712
1 2.89937 6.97394 9.90554
1 4.48582 7.77639 10.6746
1 5.27952 6.98268 10.6746
1 5.25445 7.78506 9.87069
1 4.46098 7.00833 9.87626
1 6.07322 7.77639 10.6746
1 6.86692 6.98268 10.6746
1 6.82559 7.7809 9.8638
1 6.03636 6.99417 9.86466
1 7.5 6.18898 10.6746
1 8.2937 5.39528 10.6746
1 8.30732 6.20296 9.88101
1 7.56928 5.41322 9.8415
1 9.0874 6.18898 10.6746
1 9.8811 5.39528 10.6746
1 9.89238 6.20005 9.88019
1 9.08867 5.39881 9.85517
1 10.6748 6.18898 10.6746
1 11.4685 5.39528 10.6746
1 11.4715 6.20646 9.90509
1 10.7132 5.40453 9.86644
1 12.2622 6.18898 10.6746
1 13.0559 5.39528 10.6746
1 13.0543 6.17536 9.90523
1 12.2667 5.38917 9.8678
1 13.8496 6.18898 10.6746
1 14.6433 5.39528 10.6746
1 14.6758 6.17692 9.89194
1 13.837 5.4062 9.89749
1 15.437 6.18898 10.6746
1 16.2307 5.39528 10.6746
1 16.2299 6.18404 9.87617