LAMMPS (7 Aug 2019)
#--- Brush Variables---#
variable      f      equal  1
variable      M      equal  $(v_f * 20)                 # The number of polymer chains on each brush
variable      M      equal  20                 
variable      N      string 30                 # The number of beads per chain
variable      xhi    equal  $(sqrt(v_f) * 20)                 # The width of the polymer Brush
variable      xhi    equal  20                 
variable      yhi    equal  $(sqrt(v_f) * 20)                 # The length of the polymer Brush
variable      yhi    equal  20                 
variable      wthick equal  3                  # The thickness of the walls wthick=1,2,3,4 gives 2,3,4,6 layers respectively

#--- Simulation Variables ---#
variable       Temp      index 1        #0.8 1 1.68                 #[Grest96]
variable       Tstep     equal 0.005                       # Timestep in Tau (default = 0.005)
variable       Nequil    equal 300000                       # Number of timesteps to equilibrate
variable       Ncomp     equal 700000                     # Number of timesteps to compress - until no more occilation of walls
variable       Nshear    equal 4000000      #2000000                      # Number of timesteps to shear - use approx 4ns for 10m/s
variable       Nthermo   equal 1000                        # Number of timesteps between thermo data prints
variable       Ndump_e   equal 10000
variable       Ndump_c   equal 10000                      # Number of timesteps per dump file (compression)
variable       Ndump_s   equal 10000                       # Number of timesteps per dump file (shear)
variable       Wall_v    index 0.5   #0.001 0.01 0.1 0.2 0.4 0.6 0.8 1 1.2 1.4 1.6 1.8 2   # 0.005 0.05 0.1 0.5 1.5 0.001 0.003 0.2 0.0002 2                      # Wall velocity (A/fs) - equal to 10 m/s
variable       Pcomp     index 1 0.5 2 0.05 4 8

include        MDPBB.in
# This is an input script that creates a mono disperse polymer brush bilayer
# A coarse grained bead-spring model is used for the polymers which are end
# grafted to the surfaces of 2 opposing FCC walls at random sites.

#--- Initialization ---#

dimension     3
boundary      p p f
units         lj
atom_style    bond


#--- Moved to main.in ---#
#variable      M      equal  50                # The number of polymer chains on each brush
#variable      N      string 80                # The number of beads per chain
#variable      xhi    equal  15                # The width of the polymer Brush
#variable      yhi    equal  20                # The length of the polymer Brush
#variable      wthick equal  3                 # The thickness of the walls wthick=1,2,3,4 gives 2,3,4,6 layers respectively

variable      zhi    equal  $(1.1 * 2 * v_N + (2 * v_wthick))  # The initial height of the simulation box the value is such that no overlaps occur
variable      zhi    equal  72  
variable      z0     equal  $((v_zhi)/4 - (v_N)/30)          # This is the location at which to place the CoM of the molecule
variable      z0     equal  17          

print "The number of grafted chains = $(v_M)"
The number of grafted chains = 20
print "The number of beads per chain = $(v_N)"
The number of beads per chain = 30

variable      check  equal count(all)         # The number of atoms in the system
variable      ntwall equal count(twall)       # The number of atoms in the top wall
variable      nbwall equal count(bwall)       # The number of atoms in the bottom wall
variable      s equal 234897  #45335              # Seed for the RNG

print "zhi = ${zhi}"
zhi = 72

#--- Create the simulation box ---#

region        sbox block 0 ${xhi} 0 ${yhi} 0 ${zhi}
region        sbox block 0 20 0 ${yhi} 0 ${zhi}
region        sbox block 0 20 0 20 0 ${zhi}
region        sbox block 0 20 0 20 0 72
create_box    4 sbox bond/types 3 extra/bond/per/atom 12 extra/special/per/atom 2
Created orthogonal box = (0 0 0) to (20 20 72)
  2 by 2 by 8 MPI processor grid

mass          1 2.0                   # Wall atoms that are not grafted
mass          2 1.0                   # Grafted bead
mass          3 1.0                   # The rest of the beads on the chain
mass          4 2.0                   # Wall atoms that the chains are grafted to

bond_style    hybrid fene harmonic    # Finitely extensible linearly elastic bond between neighbouring beads
#bond_coeff    1 fene 30.0 1.5 0.0 0.0      # Values obtained from literature [Grest, Galushcko]
bond_coeff    1 fene 30.0 30.0 0.0 0.0
bond_coeff    2 fene 30.0 30.0 0.0 0.0       # This is the grafting bond between the polymer and the wall atom
special_bonds fene                    #
  0 = max # of 1-2 neighbors
  5 = max # of special neighbors
  special bonds CPU = 0.00261092 secs
pair_style	  lj/cut 1.122462         # LJ potential with rc=2^1/6
#pair_coeff	  * * 1.0 1.0             # LJ potential acts between all atoms
pair_coeff    1 1 0.0 0.0
pair_coeff    1 2 1.0 1.0
pair_coeff    1 3 1.0 1.0
pair_coeff    2 2 1.0 1.0
pair_coeff    2 3 1.0 1.0
pair_coeff    2 4 1.0 1.0
pair_coeff    3 3 1.0 1.0
pair_coeff    3 4 1.0 1.0
pair_coeff    4 4 0.0 0.0
neighbor      10 bin                  #
neigh_modify  one 4000

#--- Create and read the molecule file ---#
python        BSMolf input 1 $N format i file BSMolf.py
python        BSMolf input 1 30 format i file BSMolf.py
python        BSMolf invoke    # Call the python function with number of beads to write the mol file
molecule      bs     bsmol.txt     # Read the Mol file to define the polymer chain
Read molecule bs:
  30 atoms with max type 2
  29 bonds with max type 1
  0 angles with max type 0
  0 dihedrals with max type 0
  0 impropers with max type 0

#--- Define the FCC wall region ---#
region        wall  block 0 ${xhi} 0 ${yhi} 0 ${wthick}
region        wall  block 0 20 0 ${yhi} 0 ${wthick}
region        wall  block 0 20 0 20 0 ${wthick}
region        wall  block 0 20 0 20 0 3
lattice       fcc 1
Lattice spacing in x,y,z = 1.5874 1.5874 1.5874

#--- Create the Top Brush  (At the bottom then rotate 180 degrees to top) ---#

create_atoms  1 region wall
Created 1352 atoms
  create_atoms CPU = 0.00212812 secs
group         twall  region wall
1352 atoms in group twall
#group         tsurf  region wsurf

# A loop to insert the Chains into the sim box
variable      i loop $M                                   # Index to insert N total number of chains
variable      i loop 20                                   
label         loop                                        # Start of loop
variable      randni equal round(random(1,${ntwall},$s))  # Pick a random "top" wall atom
variable      randni equal round(random(1,1352,$s))  
variable      randni equal round(random(1,1352,234897))  
variable      randatomi equal ${randni}                   # This is to obtain an integer number for atom-id
variable      randatomi equal 850                   
variable      randzi equal z[${randatomi}]                # Determine the z coordinate of the chosen atom
variable      randzi equal z[850]                
# if the chosen atom is not a surface atom then restart the loop
if            "${randzi} < $(v_wthick - 0.7)" then "jump MDPBB.in loop"
set           atom ${randatomi} type 4                    # Set this grafted wall atom as a new type
set           atom 850 type 4                    
  1 settings made for type
group         twg id ${randatomi}                         # Add this atom to a top-wall-grafted group
group         twg id 850                         
1 atoms in group twg
variable      twgcount equal count(twg)
print         "twg contains ${twgcount}"
twg contains 1
print         "i = $(v_i)"                                # The index i should always be equal to the number of atom in twg
i = 1
variable      x0 equal x[${randatomi}]                    # Determine its x-coord
variable      x0 equal x[850]                    
variable      y0 equal y[${randatomi}]                    # Determine its y-coord
variable      y0 equal y[850]                    
variable      check0 equal ${check}                       # Count the number of atoms in the simulation
variable      check0 equal 1352                       
variable      b equal ${check}+1                          # The grafted bead id will be one higher after being inserted
variable      b equal 1352+1                          
if            "${twgcount} != $(v_i)" then "jump MDPBB.in loop"
# Otherwise insert the chain directly above the chosen wall atom pointing perpendicular to the wall
create_atoms  1 single ${x0} ${y0} ${z0} mol bs 24987 units box remap yes rotate 0 0 0 1
create_atoms  1 single 11.9055078897615 ${y0} ${z0} mol bs 24987 units box remap yes rotate 0 0 0 1
create_atoms  1 single 11.9055078897615 0 ${z0} mol bs 24987 units box remap yes rotate 0 0 0 1
create_atoms  1 single 11.9055078897615 0 17 mol bs 24987 units box remap yes rotate 0 0 0 1
Created 30 atoms
  create_atoms CPU = 0.00271487 secs
variable      check1 equal ${check}               # Count the new total number of atoms
variable      check1 equal 1382               
# Check that the molecule has indeed been inserted (This check is no longer an issue).
if            "${check1} != ${check0}" then "create_bonds  single/bond 2 ${randatomi} $b" "next i"
create_bonds  single/bond 2 ${randatomi} $b
create_bonds  single/bond 2 850 $b
create_bonds  single/bond 2 850 1353
  2 = max # of 1-2 neighbors
  5 = max # of special neighbors
  special bonds CPU = 0.00100207 secs
next i
jump MDPBB.in loop    # End of the loop
variable      randni equal round(random(1,${ntwall},$s))  # Pick a random "top" wall atom
variable      randni equal round(random(1,1352,$s))  
variable      randni equal round(random(1,1352,234897))  
variable      randatomi equal ${randni}                   # This is to obtain an integer number for atom-id
variable      randatomi equal 213                   
variable      randzi equal z[${randatomi}]                # Determine the z coordinate of the chosen atom
variable      randzi equal z[213]                
# if the chosen atom is not a surface atom then restart the loop
if            "${randzi} < $(v_wthick - 0.7)" then "jump MDPBB.in loop"
jump MDPBB.in loop
variable      randni equal round(random(1,${ntwall},$s))  # Pick a random "top" wall atom
variable      randni equal round(random(1,1352,$s))  
variable      randni equal round(random(1,1352,234897))  
variable      randatomi equal ${randni}                   # This is to obtain an integer number for atom-id
variable      randatomi equal 1022                   
variable      randzi equal z[${randatomi}]                # Determine the z coordinate of the chosen atom
variable      randzi equal z[1022]                
# if the chosen atom is not a surface atom then restart the loop
if            "${randzi} < $(v_wthick - 0.7)" then "jump MDPBB.in loop"
jump MDPBB.in loop
variable      randni equal round(random(1,${ntwall},$s))  # Pick a random "top" wall atom
variable      randni equal round(random(1,1352,$s))  
variable      randni equal round(random(1,1352,234897))  
variable      randatomi equal ${randni}                   # This is to obtain an integer number for atom-id
variable      randatomi equal 1031                   
variable      randzi equal z[${randatomi}]                # Determine the z coordinate of the chosen atom
variable      randzi equal z[1031]                
# if the chosen atom is not a surface atom then restart the loop
if            "${randzi} < $(v_wthick - 0.7)" then "jump MDPBB.in loop"
jump MDPBB.in loop
variable      randni equal round(random(1,${ntwall},$s))  # Pick a random "top" wall atom
variable      randni equal round(random(1,1352,$s))  
variable      randni equal round(random(1,1352,234897))  
variable      randatomi equal ${randni}                   # This is to obtain an integer number for atom-id
variable      randatomi equal 982                   
variable      randzi equal z[${randatomi}]                # Determine the z coordinate of the chosen atom
variable      randzi equal z[982]                
# if the chosen atom is not a surface atom then restart the loop
if            "${randzi} < $(v_wthick - 0.7)" then "jump MDPBB.in loop"
jump MDPBB.in loop
variable      randni equal round(random(1,${ntwall},$s))  # Pick a random "top" wall atom
variable      randni equal round(random(1,1352,$s))  
variable      randni equal round(random(1,1352,234897))  
variable      randatomi equal ${randni}                   # This is to obtain an integer number for atom-id
variable      randatomi equal 1332                   
variable      randzi equal z[${randatomi}]                # Determine the z coordinate of the chosen atom
variable      randzi equal z[1332]                
# if the chosen atom is not a surface atom then restart the loop
if            "${randzi} < $(v_wthick - 0.7)" then "jump MDPBB.in loop"
set           atom ${randatomi} type 4                    # Set this grafted wall atom as a new type
set           atom 1332 type 4                    
  1 settings made for type
group         twg id ${randatomi}                         # Add this atom to a top-wall-grafted group
group         twg id 1332                         
2 atoms in group twg
variable      twgcount equal count(twg)
print         "twg contains ${twgcount}"
twg contains 2
print         "i = $(v_i)"                                # The index i should always be equal to the number of atom in twg
i = 2
variable      x0 equal x[${randatomi}]                    # Determine its x-coord
variable      x0 equal x[1332]                    
variable      y0 equal y[${randatomi}]                    # Determine its y-coord
variable      y0 equal y[1332]                    
variable      check0 equal ${check}                       # Count the number of atoms in the simulation
variable      check0 equal 1382                       
variable      b equal ${check}+1                          # The grafted bead id will be one higher after being inserted
variable      b equal 1382+1                          
if            "${twgcount} != $(v_i)" then "jump MDPBB.in loop"
# Otherwise insert the chain directly above the chosen wall atom pointing perpendicular to the wall
create_atoms  1 single ${x0} ${y0} ${z0} mol bs 24987 units box remap yes rotate 0 0 0 1
create_atoms  1 single 11.1118073637774 ${y0} ${z0} mol bs 24987 units box remap yes rotate 0 0 0 1
create_atoms  1 single 11.1118073637774 19.8425131496025 ${z0} mol bs 24987 units box remap yes rotate 0 0 0 1
create_atoms  1 single 11.1118073637774 19.8425131496025 17 mol bs 24987 units box remap yes rotate 0 0 0 1
Created 30 atoms
  create_atoms CPU = 0.00247908 secs
variable      check1 equal ${check}               # Count the new total number of atoms
variable      check1 equal 1412               
# Check that the molecule has indeed been inserted (This check is no longer an issue).
if            "${check1} != ${check0}" then "create_bonds  single/bond 2 ${randatomi} $b" "next i"
create_bonds  single/bond 2 ${randatomi} $b
create_bonds  single/bond 2 1332 $b
create_bonds  single/bond 2 1332 1383
  2 = max # of 1-2 neighbors
  5 = max # of special neighbors
  special bonds CPU = 0.000683069 secs
next i
jump MDPBB.in loop    # End of the loop
variable      randni equal round(random(1,${ntwall},$s))  # Pick a random "top" wall atom
variable      randni equal round(random(1,1352,$s))  
variable      randni equal round(random(1,1352,234897))  
variable      randatomi equal ${randni}                   # This is to obtain an integer number for atom-id
variable      randatomi equal 643                   
variable      randzi equal z[${randatomi}]                # Determine the z coordinate of the chosen atom
variable      randzi equal z[643]                
# if the chosen atom is not a surface atom then restart the loop
if            "${randzi} < $(v_wthick - 0.7)" then "jump MDPBB.in loop"
set           atom ${randatomi} type 4                    # Set this grafted wall atom as a new type
set           atom 643 type 4                    
  1 settings made for type
group         twg id ${randatomi}                         # Add this atom to a top-wall-grafted group
group         twg id 643                         
3 atoms in group twg
variable      twgcount equal count(twg)
print         "twg contains ${twgcount}"
twg contains 3
print         "i = $(v_i)"                                # The index i should always be equal to the number of atom in twg
i = 3
variable      x0 equal x[${randatomi}]                    # Determine its x-coord
variable      x0 equal x[643]                    
variable      y0 equal y[${randatomi}]                    # Determine its y-coord
variable      y0 equal y[643]                    
variable      check0 equal ${check}                       # Count the number of atoms in the simulation
variable      check0 equal 1412                       
variable      b equal ${check}+1                          # The grafted bead id will be one higher after being inserted
variable      b equal 1412+1                          
if            "${twgcount} != $(v_i)" then "jump MDPBB.in loop"
# Otherwise insert the chain directly above the chosen wall atom pointing perpendicular to the wall
create_atoms  1 single ${x0} ${y0} ${z0} mol bs 24987 units box remap yes rotate 0 0 0 1
create_atoms  1 single 7.1433047338569 ${y0} ${z0} mol bs 24987 units box remap yes rotate 0 0 0 1
create_atoms  1 single 7.1433047338569 17.4614115716502 ${z0} mol bs 24987 units box remap yes rotate 0 0 0 1
create_atoms  1 single 7.1433047338569 17.4614115716502 17 mol bs 24987 units box remap yes rotate 0 0 0 1
Created 30 atoms
  create_atoms CPU = 0.00248694 secs
variable      check1 equal ${check}               # Count the new total number of atoms
variable      check1 equal 1442               
# Check that the molecule has indeed been inserted (This check is no longer an issue).
if            "${check1} != ${check0}" then "create_bonds  single/bond 2 ${randatomi} $b" "next i"
create_bonds  single/bond 2 ${randatomi} $b
create_bonds  single/bond 2 643 $b
create_bonds  single/bond 2 643 1413
  2 = max # of 1-2 neighbors
  5 = max # of special neighbors
  special bonds CPU = 0.00067091 secs
next i
jump MDPBB.in loop    # End of the loop
variable      randni equal round(random(1,${ntwall},$s))  # Pick a random "top" wall atom
variable      randni equal round(random(1,1352,$s))  
variable      randni equal round(random(1,1352,234897))  
variable      randatomi equal ${randni}                   # This is to obtain an integer number for atom-id
variable      randatomi equal 454                   
variable      randzi equal z[${randatomi}]                # Determine the z coordinate of the chosen atom
variable      randzi equal z[454]                
# if the chosen atom is not a surface atom then restart the loop
if            "${randzi} < $(v_wthick - 0.7)" then "jump MDPBB.in loop"
jump MDPBB.in loop
variable      randni equal round(random(1,${ntwall},$s))  # Pick a random "top" wall atom
variable      randni equal round(random(1,1352,$s))  
variable      randni equal round(random(1,1352,234897))  
variable      randatomi equal ${randni}                   # This is to obtain an integer number for atom-id
variable      randatomi equal 585                   
variable      randzi equal z[${randatomi}]                # Determine the z coordinate of the chosen atom
variable      randzi equal z[585]                
# if the chosen atom is not a surface atom then restart the loop
if            "${randzi} < $(v_wthick - 0.7)" then "jump MDPBB.in loop"
jump MDPBB.in loop
variable      randni equal round(random(1,${ntwall},$s))  # Pick a random "top" wall atom
variable      randni equal round(random(1,1352,$s))  
variable      randni equal round(random(1,1352,234897))  
variable      randatomi equal ${randni}                   # This is to obtain an integer number for atom-id
variable      randatomi equal 979                   
variable      randzi equal z[${randatomi}]                # Determine the z coordinate of the chosen atom
variable      randzi equal z[979]                
# if the chosen atom is not a surface atom then restart the loop
if            "${randzi} < $(v_wthick - 0.7)" then "jump MDPBB.in loop"
jump MDPBB.in loop
variable      randni equal round(random(1,${ntwall},$s))  # Pick a random "top" wall atom
variable      randni equal round(random(1,1352,$s))  
variable      randni equal round(random(1,1352,234897))  
variable      randatomi equal ${randni}                   # This is to obtain an integer number for atom-id
variable      randatomi equal 1211                   
variable      randzi equal z[${randatomi}]                # Determine the z coordinate of the chosen atom
variable      randzi equal z[1211]                
# if the chosen atom is not a surface atom then restart the loop
if            "${randzi} < $(v_wthick - 0.7)" then "jump MDPBB.in loop"
jump MDPBB.in loop
variable      randni equal round(random(1,${ntwall},$s))  # Pick a random "top" wall atom
variable      randni equal round(random(1,1352,$s))  
variable      randni equal round(random(1,1352,234897))  
variable      randatomi equal ${randni}                   # This is to obtain an integer number for atom-id
variable      randatomi equal 11                   
variable      randzi equal z[${randatomi}]                # Determine the z coordinate of the chosen atom
variable      randzi equal z[11]                
# if the chosen atom is not a surface atom then restart the loop
if            "${randzi} < $(v_wthick - 0.7)" then "jump MDPBB.in loop"
jump MDPBB.in loop
variable      randni equal round(random(1,${ntwall},$s))  # Pick a random "top" wall atom
variable      randni equal round(random(1,1352,$s))  
variable      randni equal round(random(1,1352,234897))  
variable      randatomi equal ${randni}                   # This is to obtain an integer number for atom-id
variable      randatomi equal 258                   
variable      randzi equal z[${randatomi}]                # Determine the z coordinate of the chosen atom
variable      randzi equal z[258]                
# if the chosen atom is not a surface atom then restart the loop
if            "${randzi} < $(v_wthick - 0.7)" then "jump MDPBB.in loop"
set           atom ${randatomi} type 4                    # Set this grafted wall atom as a new type
set           atom 258 type 4                    
  1 settings made for type
group         twg id ${randatomi}                         # Add this atom to a top-wall-grafted group
group         twg id 258                         
4 atoms in group twg
variable      twgcount equal count(twg)
print         "twg contains ${twgcount}"
twg contains 4
print         "i = $(v_i)"                                # The index i should always be equal to the number of atom in twg
i = 4
variable      x0 equal x[${randatomi}]                    # Determine its x-coord
variable      x0 equal x[258]                    
variable      y0 equal y[${randatomi}]                    # Determine its y-coord
variable      y0 equal y[258]                    
variable      check0 equal ${check}                       # Count the number of atoms in the simulation
variable      check0 equal 1442                       
variable      b equal ${check}+1                          # The grafted bead id will be one higher after being inserted
variable      b equal 1442+1                          
if            "${twgcount} != $(v_i)" then "jump MDPBB.in loop"
# Otherwise insert the chain directly above the chosen wall atom pointing perpendicular to the wall
create_atoms  1 single ${x0} ${y0} ${z0} mol bs 24987 units box remap yes rotate 0 0 0 1
create_atoms  1 single 3.9685026299205 ${y0} ${z0} mol bs 24987 units box remap yes rotate 0 0 0 1
create_atoms  1 single 3.9685026299205 4.7622031559046 ${z0} mol bs 24987 units box remap yes rotate 0 0 0 1
create_atoms  1 single 3.9685026299205 4.7622031559046 17 mol bs 24987 units box remap yes rotate 0 0 0 1
Created 30 atoms
  create_atoms CPU = 0.00248003 secs
variable      check1 equal ${check}               # Count the new total number of atoms
variable      check1 equal 1472               
# Check that the molecule has indeed been inserted (This check is no longer an issue).
if            "${check1} != ${check0}" then "create_bonds  single/bond 2 ${randatomi} $b" "next i"
create_bonds  single/bond 2 ${randatomi} $b
create_bonds  single/bond 2 258 $b
create_bonds  single/bond 2 258 1443
  2 = max # of 1-2 neighbors
  5 = max # of special neighbors
  special bonds CPU = 0.000710964 secs
next i
jump MDPBB.in loop    # End of the loop
variable      randni equal round(random(1,${ntwall},$s))  # Pick a random "top" wall atom
variable      randni equal round(random(1,1352,$s))  
variable      randni equal round(random(1,1352,234897))  
variable      randatomi equal ${randni}                   # This is to obtain an integer number for atom-id
variable      randatomi equal 442                   
variable      randzi equal z[${randatomi}]                # Determine the z coordinate of the chosen atom
variable      randzi equal z[442]                
# if the chosen atom is not a surface atom then restart the loop
if            "${randzi} < $(v_wthick - 0.7)" then "jump MDPBB.in loop"
jump MDPBB.in loop
variable      randni equal round(random(1,${ntwall},$s))  # Pick a random "top" wall atom
variable      randni equal round(random(1,1352,$s))  
variable      randni equal round(random(1,1352,234897))  
variable      randatomi equal ${randni}                   # This is to obtain an integer number for atom-id
variable      randatomi equal 1095                   
variable      randzi equal z[${randatomi}]                # Determine the z coordinate of the chosen atom
variable      randzi equal z[1095]                
# if the chosen atom is not a surface atom then restart the loop
if            "${randzi} < $(v_wthick - 0.7)" then "jump MDPBB.in loop"
jump MDPBB.in loop
variable      randni equal round(random(1,${ntwall},$s))  # Pick a random "top" wall atom
variable      randni equal round(random(1,1352,$s))  
variable      randni equal round(random(1,1352,234897))  
variable      randatomi equal ${randni}                   # This is to obtain an integer number for atom-id
variable      randatomi equal 960                   
variable      randzi equal z[${randatomi}]                # Determine the z coordinate of the chosen atom
variable      randzi equal z[960]                
# if the chosen atom is not a surface atom then restart the loop
if            "${randzi} < $(v_wthick - 0.7)" then "jump MDPBB.in loop"
jump MDPBB.in loop
variable      randni equal round(random(1,${ntwall},$s))  # Pick a random "top" wall atom
variable      randni equal round(random(1,1352,$s))  
variable      randni equal round(random(1,1352,234897))  
variable      randatomi equal ${randni}                   # This is to obtain an integer number for atom-id
variable      randatomi equal 931                   
variable      randzi equal z[${randatomi}]                # Determine the z coordinate of the chosen atom
variable      randzi equal z[931]                
# if the chosen atom is not a surface atom then restart the loop
if            "${randzi} < $(v_wthick - 0.7)" then "jump MDPBB.in loop"
jump MDPBB.in loop
variable      randni equal round(random(1,${ntwall},$s))  # Pick a random "top" wall atom
variable      randni equal round(random(1,1352,$s))  
variable      randni equal round(random(1,1352,234897))  
variable      randatomi equal ${randni}                   # This is to obtain an integer number for atom-id
variable      randatomi equal 755                   
variable      randzi equal z[${randatomi}]                # Determine the z coordinate of the chosen atom
variable      randzi equal z[755]                
# if the chosen atom is not a surface atom then restart the loop
if            "${randzi} < $(v_wthick - 0.7)" then "jump MDPBB.in loop"
jump MDPBB.in loop
variable      randni equal round(random(1,${ntwall},$s))  # Pick a random "top" wall atom
variable      randni equal round(random(1,1352,$s))  
variable      randni equal round(random(1,1352,234897))  
variable      randatomi equal ${randni}                   # This is to obtain an integer number for atom-id
variable      randatomi equal 1053                   
variable      randzi equal z[${randatomi}]                # Determine the z coordinate of the chosen atom
variable      randzi equal z[1053]                
# if the chosen atom is not a surface atom then restart the loop
if            "${randzi} < $(v_wthick - 0.7)" then "jump MDPBB.in loop"
jump MDPBB.in loop
variable      randni equal round(random(1,${ntwall},$s))  # Pick a random "top" wall atom
variable      randni equal round(random(1,1352,$s))  
variable      randni equal round(random(1,1352,234897))  
variable      randatomi equal ${randni}                   # This is to obtain an integer number for atom-id
variable      randatomi equal 832                   
variable      randzi equal z[${randatomi}]                # Determine the z coordinate of the chosen atom
variable      randzi equal z[832]                
# if the chosen atom is not a surface atom then restart the loop
if            "${randzi} < $(v_wthick - 0.7)" then "jump MDPBB.in loop"
jump MDPBB.in loop
variable      randni equal round(random(1,${ntwall},$s))  # Pick a random "top" wall atom
variable      randni equal round(random(1,1352,$s))  
variable      randni equal round(random(1,1352,234897))  
variable      randatomi equal ${randni}                   # This is to obtain an integer number for atom-id
variable      randatomi equal 838                   
variable      randzi equal z[${randatomi}]                # Determine the z coordinate of the chosen atom
variable      randzi equal z[838]                
# if the chosen atom is not a surface atom then restart the loop
if            "${randzi} < $(v_wthick - 0.7)" then "jump MDPBB.in loop"
jump MDPBB.in loop
variable      randni equal round(random(1,${ntwall},$s))  # Pick a random "top" wall atom
variable      randni equal round(random(1,1352,$s))  
variable      randni equal round(random(1,1352,234897))  
variable      randatomi equal ${randni}                   # This is to obtain an integer number for atom-id
variable      randatomi equal 163                   
variable      randzi equal z[${randatomi}]                # Determine the z coordinate of the chosen atom
variable      randzi equal z[163]                
# if the chosen atom is not a surface atom then restart the loop
if            "${randzi} < $(v_wthick - 0.7)" then "jump MDPBB.in loop"
jump MDPBB.in loop
variable      randni equal round(random(1,${ntwall},$s))  # Pick a random "top" wall atom
variable      randni equal round(random(1,1352,$s))  
variable      randni equal round(random(1,1352,234897))  
variable      randatomi equal ${randni}                   # This is to obtain an integer number for atom-id
variable      randatomi equal 1178                   
variable      randzi equal z[${randatomi}]                # Determine the z coordinate of the chosen atom
variable      randzi equal z[1178]                
# if the chosen atom is not a surface atom then restart the loop
if            "${randzi} < $(v_wthick - 0.7)" then "jump MDPBB.in loop"
jump MDPBB.in loop
variable      randni equal round(random(1,${ntwall},$s))  # Pick a random "top" wall atom
variable      randni equal round(random(1,1352,$s))  
variable      randni equal round(random(1,1352,234897))  
variable      randatomi equal ${randni}                   # This is to obtain an integer number for atom-id
variable      randatomi equal 814                   
variable      randzi equal z[${randatomi}]                # Determine the z coordinate of the chosen atom
variable      randzi equal z[814]                
# if the chosen atom is not a surface atom then restart the loop
if            "${randzi} < $(v_wthick - 0.7)" then "jump MDPBB.in loop"
jump MDPBB.in loop
variable      randni equal round(random(1,${ntwall},$s))  # Pick a random "top" wall atom
variable      randni equal round(random(1,1352,$s))  
variable      randni equal round(random(1,1352,234897))  
variable      randatomi equal ${randni}                   # This is to obtain an integer number for atom-id
variable      randatomi equal 1242                   
variable      randzi equal z[${randatomi}]                # Determine the z coordinate of the chosen atom
variable      randzi equal z[1242]                
# if the chosen atom is not a surface atom then restart the loop
if            "${randzi} < $(v_wthick - 0.7)" then "jump MDPBB.in loop"
jump MDPBB.in loop
variable      randni equal round(random(1,${ntwall},$s))  # Pick a random "top" wall atom
variable      randni equal round(random(1,1352,$s))  
variable      randni equal round(random(1,1352,234897))  
variable      randatomi equal ${randni}                   # This is to obtain an integer number for atom-id
variable      randatomi equal 942                   
variable      randzi equal z[${randatomi}]                # Determine the z coordinate of the chosen atom
variable      randzi equal z[942]                
# if the chosen atom is not a surface atom then restart the loop
if            "${randzi} < $(v_wthick - 0.7)" then "jump MDPBB.in loop"
jump MDPBB.in loop
variable      randni equal round(random(1,${ntwall},$s))  # Pick a random "top" wall atom
variable      randni equal round(random(1,1352,$s))  
variable      randni equal round(random(1,1352,234897))  
variable      randatomi equal ${randni}                   # This is to obtain an integer number for atom-id
variable      randatomi equal 1214                   
variable      randzi equal z[${randatomi}]                # Determine the z coordinate of the chosen atom
variable      randzi equal z[1214]                
# if the chosen atom is not a surface atom then restart the loop
if            "${randzi} < $(v_wthick - 0.7)" then "jump MDPBB.in loop"
set           atom ${randatomi} type 4                    # Set this grafted wall atom as a new type
set           atom 1214 type 4                    
  1 settings made for type
group         twg id ${randatomi}                         # Add this atom to a top-wall-grafted group
group         twg id 1214                         
5 atoms in group twg
variable      twgcount equal count(twg)
print         "twg contains ${twgcount}"
twg contains 5
print         "i = $(v_i)"                                # The index i should always be equal to the number of atom in twg
i = 5
variable      x0 equal x[${randatomi}]                    # Determine its x-coord
variable      x0 equal x[1214]                    
variable      y0 equal y[${randatomi}]                    # Determine its y-coord
variable      y0 equal y[1214]                    
variable      check0 equal ${check}                       # Count the number of atoms in the simulation
variable      check0 equal 1472                       
variable      b equal ${check}+1                          # The grafted bead id will be one higher after being inserted
variable      b equal 1472+1                          
if            "${twgcount} != $(v_i)" then "jump MDPBB.in loop"
# Otherwise insert the chain directly above the chosen wall atom pointing perpendicular to the wall
create_atoms  1 single ${x0} ${y0} ${z0} mol bs 24987 units box remap yes rotate 0 0 0 1
create_atoms  1 single 15.874010519682 ${y0} ${z0} mol bs 24987 units box remap yes rotate 0 0 0 1
create_atoms  1 single 15.874010519682 11.9055078897615 ${z0} mol bs 24987 units box remap yes rotate 0 0 0 1
create_atoms  1 single 15.874010519682 11.9055078897615 17 mol bs 24987 units box remap yes rotate 0 0 0 1
Created 30 atoms
  create_atoms CPU = 0.000317812 secs
variable      check1 equal ${check}               # Count the new total number of atoms
variable      check1 equal 1502               
# Check that the molecule has indeed been inserted (This check is no longer an issue).
if            "${check1} != ${check0}" then "create_bonds  single/bond 2 ${randatomi} $b" "next i"
create_bonds  single/bond 2 ${randatomi} $b
create_bonds  single/bond 2 1214 $b
create_bonds  single/bond 2 1214 1473
  2 = max # of 1-2 neighbors
  5 = max # of special neighbors
  special bonds CPU = 0.000697136 secs
next i
jump MDPBB.in loop    # End of the loop
variable      randni equal round(random(1,${ntwall},$s))  # Pick a random "top" wall atom
variable      randni equal round(random(1,1352,$s))  
variable      randni equal round(random(1,1352,234897))  
variable      randatomi equal ${randni}                   # This is to obtain an integer number for atom-id
variable      randatomi equal 796                   
variable      randzi equal z[${randatomi}]                # Determine the z coordinate of the chosen atom
variable      randzi equal z[796]                
# if the chosen atom is not a surface atom then restart the loop
if            "${randzi} < $(v_wthick - 0.7)" then "jump MDPBB.in loop"
jump MDPBB.in loop
variable      randni equal round(random(1,${ntwall},$s))  # Pick a random "top" wall atom
variable      randni equal round(random(1,1352,$s))  
variable      randni equal round(random(1,1352,234897))  
variable      randatomi equal ${randni}                   # This is to obtain an integer number for atom-id
variable      randatomi equal 1150                   
variable      randzi equal z[${randatomi}]                # Determine the z coordinate of the chosen atom
variable      randzi equal z[1150]                
# if the chosen atom is not a surface atom then restart the loop
if            "${randzi} < $(v_wthick - 0.7)" then "jump MDPBB.in loop"
jump MDPBB.in loop
variable      randni equal round(random(1,${ntwall},$s))  # Pick a random "top" wall atom
variable      randni equal round(random(1,1352,$s))  
variable      randni equal round(random(1,1352,234897))  
variable      randatomi equal ${randni}                   # This is to obtain an integer number for atom-id
variable      randatomi equal 1133                   
variable      randzi equal z[${randatomi}]                # Determine the z coordinate of the chosen atom
variable      randzi equal z[1133]                
# if the chosen atom is not a surface atom then restart the loop
if            "${randzi} < $(v_wthick - 0.7)" then "jump MDPBB.in loop"
jump MDPBB.in loop
variable      randni equal round(random(1,${ntwall},$s))  # Pick a random "top" wall atom
variable      randni equal round(random(1,1352,$s))  
variable      randni equal round(random(1,1352,234897))  
variable      randatomi equal ${randni}                   # This is to obtain an integer number for atom-id
variable      randatomi equal 563                   
variable      randzi equal z[${randatomi}]                # Determine the z coordinate of the chosen atom
variable      randzi equal z[563]                
# if the chosen atom is not a surface atom then restart the loop
if            "${randzi} < $(v_wthick - 0.7)" then "jump MDPBB.in loop"
jump MDPBB.in loop
variable      randni equal round(random(1,${ntwall},$s))  # Pick a random "top" wall atom
variable      randni equal round(random(1,1352,$s))  
variable      randni equal round(random(1,1352,234897))  
variable      randatomi equal ${randni}                   # This is to obtain an integer number for atom-id
variable      randatomi equal 1350                   
variable      randzi equal z[${randatomi}]                # Determine the z coordinate of the chosen atom
variable      randzi equal z[1350]                
# if the chosen atom is not a surface atom then restart the loop
if            "${randzi} < $(v_wthick - 0.7)" then "jump MDPBB.in loop"
jump MDPBB.in loop
variable      randni equal round(random(1,${ntwall},$s))  # Pick a random "top" wall atom
variable      randni equal round(random(1,1352,$s))  
variable      randni equal round(random(1,1352,234897))  
variable      randatomi equal ${randni}                   # This is to obtain an integer number for atom-id
variable      randatomi equal 1318                   
variable      randzi equal z[${randatomi}]                # Determine the z coordinate of the chosen atom
variable      randzi equal z[1318]                
# if the chosen atom is not a surface atom then restart the loop
if            "${randzi} < $(v_wthick - 0.7)" then "jump MDPBB.in loop"
set           atom ${randatomi} type 4                    # Set this grafted wall atom as a new type
set           atom 1318 type 4                    
  1 settings made for type
group         twg id ${randatomi}                         # Add this atom to a top-wall-grafted group
group         twg id 1318                         
6 atoms in group twg
variable      twgcount equal count(twg)
print         "twg contains ${twgcount}"
twg contains 6
print         "i = $(v_i)"                                # The index i should always be equal to the number of atom in twg
i = 6
variable      x0 equal x[${randatomi}]                    # Determine its x-coord
variable      x0 equal x[1318]                    
variable      y0 equal y[${randatomi}]                    # Determine its y-coord
variable      y0 equal y[1318]                    
variable      check0 equal ${check}                       # Count the number of atoms in the simulation
variable      check0 equal 1502                       
variable      b equal ${check}+1                          # The grafted bead id will be one higher after being inserted
variable      b equal 1502+1                          
if            "${twgcount} != $(v_i)" then "jump MDPBB.in loop"
# Otherwise insert the chain directly above the chosen wall atom pointing perpendicular to the wall
create_atoms  1 single ${x0} ${y0} ${z0} mol bs 24987 units box remap yes rotate 0 0 0 1
create_atoms  1 single 15.874010519682 ${y0} ${z0} mol bs 24987 units box remap yes rotate 0 0 0 1
create_atoms  1 single 15.874010519682 18.2551120976343 ${z0} mol bs 24987 units box remap yes rotate 0 0 0 1
create_atoms  1 single 15.874010519682 18.2551120976343 17 mol bs 24987 units box remap yes rotate 0 0 0 1
Created 30 atoms
  create_atoms CPU = 0.000300884 secs
variable      check1 equal ${check}               # Count the new total number of atoms
variable      check1 equal 1532               
# Check that the molecule has indeed been inserted (This check is no longer an issue).
if            "${check1} != ${check0}" then "create_bonds  single/bond 2 ${randatomi} $b" "next i"
create_bonds  single/bond 2 ${randatomi} $b
create_bonds  single/bond 2 1318 $b
create_bonds  single/bond 2 1318 1503
  2 = max # of 1-2 neighbors
  5 = max # of special neighbors
  special bonds CPU = 0.000695944 secs
next i
jump MDPBB.in loop    # End of the loop
variable      randni equal round(random(1,${ntwall},$s))  # Pick a random "top" wall atom
variable      randni equal round(random(1,1352,$s))  
variable      randni equal round(random(1,1352,234897))  
variable      randatomi equal ${randni}                   # This is to obtain an integer number for atom-id
variable      randatomi equal 979                   
variable      randzi equal z[${randatomi}]                # Determine the z coordinate of the chosen atom
variable      randzi equal z[979]                
# if the chosen atom is not a surface atom then restart the loop
if            "${randzi} < $(v_wthick - 0.7)" then "jump MDPBB.in loop"
jump MDPBB.in loop
variable      randni equal round(random(1,${ntwall},$s))  # Pick a random "top" wall atom
variable      randni equal round(random(1,1352,$s))  
variable      randni equal round(random(1,1352,234897))  
variable      randatomi equal ${randni}                   # This is to obtain an integer number for atom-id
variable      randatomi equal 1270                   
variable      randzi equal z[${randatomi}]                # Determine the z coordinate of the chosen atom
variable      randzi equal z[1270]                
# if the chosen atom is not a surface atom then restart the loop
if            "${randzi} < $(v_wthick - 0.7)" then "jump MDPBB.in loop"
set           atom ${randatomi} type 4                    # Set this grafted wall atom as a new type
set           atom 1270 type 4                    
  1 settings made for type
group         twg id ${randatomi}                         # Add this atom to a top-wall-grafted group
group         twg id 1270                         
7 atoms in group twg
variable      twgcount equal count(twg)
print         "twg contains ${twgcount}"
twg contains 7
print         "i = $(v_i)"                                # The index i should always be equal to the number of atom in twg
i = 7
variable      x0 equal x[${randatomi}]                    # Determine its x-coord
variable      x0 equal x[1270]                    
variable      y0 equal y[${randatomi}]                    # Determine its y-coord
variable      y0 equal y[1270]                    
variable      check0 equal ${check}                       # Count the number of atoms in the simulation
variable      check0 equal 1532                       
variable      b equal ${check}+1                          # The grafted bead id will be one higher after being inserted
variable      b equal 1532+1                          
if            "${twgcount} != $(v_i)" then "jump MDPBB.in loop"
# Otherwise insert the chain directly above the chosen wall atom pointing perpendicular to the wall
create_atoms  1 single ${x0} ${y0} ${z0} mol bs 24987 units box remap yes rotate 0 0 0 1
create_atoms  1 single 17.4614115716502 ${y0} ${z0} mol bs 24987 units box remap yes rotate 0 0 0 1
create_atoms  1 single 17.4614115716502 15.0803099936979 ${z0} mol bs 24987 units box remap yes rotate 0 0 0 1
create_atoms  1 single 17.4614115716502 15.0803099936979 17 mol bs 24987 units box remap yes rotate 0 0 0 1
Created 30 atoms
  create_atoms CPU = 0.000304937 secs
variable      check1 equal ${check}               # Count the new total number of atoms
variable      check1 equal 1562               
# Check that the molecule has indeed been inserted (This check is no longer an issue).
if            "${check1} != ${check0}" then "create_bonds  single/bond 2 ${randatomi} $b" "next i"
create_bonds  single/bond 2 ${randatomi} $b
create_bonds  single/bond 2 1270 $b
create_bonds  single/bond 2 1270 1533
  2 = max # of 1-2 neighbors
  5 = max # of special neighbors
  special bonds CPU = 0.000684977 secs
next i
jump MDPBB.in loop    # End of the loop
variable      randni equal round(random(1,${ntwall},$s))  # Pick a random "top" wall atom
variable      randni equal round(random(1,1352,$s))  
variable      randni equal round(random(1,1352,234897))  
variable      randatomi equal ${randni}                   # This is to obtain an integer number for atom-id
variable      randatomi equal 320                   
variable      randzi equal z[${randatomi}]                # Determine the z coordinate of the chosen atom
variable      randzi equal z[320]                
# if the chosen atom is not a surface atom then restart the loop
if            "${randzi} < $(v_wthick - 0.7)" then "jump MDPBB.in loop"
jump MDPBB.in loop
variable      randni equal round(random(1,${ntwall},$s))  # Pick a random "top" wall atom
variable      randni equal round(random(1,1352,$s))  
variable      randni equal round(random(1,1352,234897))  
variable      randatomi equal ${randni}                   # This is to obtain an integer number for atom-id
variable      randatomi equal 1261                   
variable      randzi equal z[${randatomi}]                # Determine the z coordinate of the chosen atom
variable      randzi equal z[1261]                
# if the chosen atom is not a surface atom then restart the loop
if            "${randzi} < $(v_wthick - 0.7)" then "jump MDPBB.in loop"
set           atom ${randatomi} type 4                    # Set this grafted wall atom as a new type
set           atom 1261 type 4                    
  1 settings made for type
group         twg id ${randatomi}                         # Add this atom to a top-wall-grafted group
group         twg id 1261                         
8 atoms in group twg
variable      twgcount equal count(twg)
print         "twg contains ${twgcount}"
twg contains 8
print         "i = $(v_i)"                                # The index i should always be equal to the number of atom in twg
i = 8
variable      x0 equal x[${randatomi}]                    # Determine its x-coord
variable      x0 equal x[1261]                    
variable      y0 equal y[${randatomi}]                    # Determine its y-coord
variable      y0 equal y[1261]                    
variable      check0 equal ${check}                       # Count the number of atoms in the simulation
variable      check0 equal 1562                       
variable      b equal ${check}+1                          # The grafted bead id will be one higher after being inserted
variable      b equal 1562+1                          
if            "${twgcount} != $(v_i)" then "jump MDPBB.in loop"
# Otherwise insert the chain directly above the chosen wall atom pointing perpendicular to the wall
create_atoms  1 single ${x0} ${y0} ${z0} mol bs 24987 units box remap yes rotate 0 0 0 1
create_atoms  1 single 15.0803099936979 ${y0} ${z0} mol bs 24987 units box remap yes rotate 0 0 0 1
create_atoms  1 single 15.0803099936979 14.2866094677138 ${z0} mol bs 24987 units box remap yes rotate 0 0 0 1
create_atoms  1 single 15.0803099936979 14.2866094677138 17 mol bs 24987 units box remap yes rotate 0 0 0 1
Created 30 atoms
  create_atoms CPU = 0.000301838 secs
variable      check1 equal ${check}               # Count the new total number of atoms
variable      check1 equal 1592               
# Check that the molecule has indeed been inserted (This check is no longer an issue).
if            "${check1} != ${check0}" then "create_bonds  single/bond 2 ${randatomi} $b" "next i"
create_bonds  single/bond 2 ${randatomi} $b
create_bonds  single/bond 2 1261 $b
create_bonds  single/bond 2 1261 1563
  2 = max # of 1-2 neighbors
  5 = max # of special neighbors
  special bonds CPU = 0.00068593 secs
next i
jump MDPBB.in loop    # End of the loop
variable      randni equal round(random(1,${ntwall},$s))  # Pick a random "top" wall atom
variable      randni equal round(random(1,1352,$s))  
variable      randni equal round(random(1,1352,234897))  
variable      randatomi equal ${randni}                   # This is to obtain an integer number for atom-id
variable      randatomi equal 177                   
variable      randzi equal z[${randatomi}]                # Determine the z coordinate of the chosen atom
variable      randzi equal z[177]                
# if the chosen atom is not a surface atom then restart the loop
if            "${randzi} < $(v_wthick - 0.7)" then "jump MDPBB.in loop"
set           atom ${randatomi} type 4                    # Set this grafted wall atom as a new type
set           atom 177 type 4                    
  1 settings made for type
group         twg id ${randatomi}                         # Add this atom to a top-wall-grafted group
group         twg id 177                         
9 atoms in group twg
variable      twgcount equal count(twg)
print         "twg contains ${twgcount}"
twg contains 9
print         "i = $(v_i)"                                # The index i should always be equal to the number of atom in twg
i = 9
variable      x0 equal x[${randatomi}]                    # Determine its x-coord
variable      x0 equal x[177]                    
variable      y0 equal y[${randatomi}]                    # Determine its y-coord
variable      y0 equal y[177]                    
variable      check0 equal ${check}                       # Count the number of atoms in the simulation
variable      check0 equal 1592                       
variable      b equal ${check}+1                          # The grafted bead id will be one higher after being inserted
variable      b equal 1592+1                          
if            "${twgcount} != $(v_i)" then "jump MDPBB.in loop"
# Otherwise insert the chain directly above the chosen wall atom pointing perpendicular to the wall
create_atoms  1 single ${x0} ${y0} ${z0} mol bs 24987 units box remap yes rotate 0 0 0 1
create_atoms  1 single 1.5874010519682 ${y0} ${z0} mol bs 24987 units box remap yes rotate 0 0 0 1
create_atoms  1 single 1.5874010519682 0.7937005259841 ${z0} mol bs 24987 units box remap yes rotate 0 0 0 1
create_atoms  1 single 1.5874010519682 0.7937005259841 17 mol bs 24987 units box remap yes rotate 0 0 0 1
Created 30 atoms
  create_atoms CPU = 0.000314951 secs
variable      check1 equal ${check}               # Count the new total number of atoms
variable      check1 equal 1622               
# Check that the molecule has indeed been inserted (This check is no longer an issue).
if            "${check1} != ${check0}" then "create_bonds  single/bond 2 ${randatomi} $b" "next i"
create_bonds  single/bond 2 ${randatomi} $b
create_bonds  single/bond 2 177 $b
create_bonds  single/bond 2 177 1593
  2 = max # of 1-2 neighbors
  5 = max # of special neighbors
  special bonds CPU = 0.000702858 secs
next i
jump MDPBB.in loop    # End of the loop
variable      randni equal round(random(1,${ntwall},$s))  # Pick a random "top" wall atom
variable      randni equal round(random(1,1352,$s))  
variable      randni equal round(random(1,1352,234897))  
variable      randatomi equal ${randni}                   # This is to obtain an integer number for atom-id
variable      randatomi equal 1150                   
variable      randzi equal z[${randatomi}]                # Determine the z coordinate of the chosen atom
variable      randzi equal z[1150]                
# if the chosen atom is not a surface atom then restart the loop
if            "${randzi} < $(v_wthick - 0.7)" then "jump MDPBB.in loop"
jump MDPBB.in loop
variable      randni equal round(random(1,${ntwall},$s))  # Pick a random "top" wall atom
variable      randni equal round(random(1,1352,$s))  
variable      randni equal round(random(1,1352,234897))  
variable      randatomi equal ${randni}                   # This is to obtain an integer number for atom-id
variable      randatomi equal 1263                   
variable      randzi equal z[${randatomi}]                # Determine the z coordinate of the chosen atom
variable      randzi equal z[1263]                
# if the chosen atom is not a surface atom then restart the loop
if            "${randzi} < $(v_wthick - 0.7)" then "jump MDPBB.in loop"
jump MDPBB.in loop
variable      randni equal round(random(1,${ntwall},$s))  # Pick a random "top" wall atom
variable      randni equal round(random(1,1352,$s))  
variable      randni equal round(random(1,1352,234897))  
variable      randatomi equal ${randni}                   # This is to obtain an integer number for atom-id
variable      randatomi equal 463                   
variable      randzi equal z[${randatomi}]                # Determine the z coordinate of the chosen atom
variable      randzi equal z[463]                
# if the chosen atom is not a surface atom then restart the loop
if            "${randzi} < $(v_wthick - 0.7)" then "jump MDPBB.in loop"
jump MDPBB.in loop
variable      randni equal round(random(1,${ntwall},$s))  # Pick a random "top" wall atom
variable      randni equal round(random(1,1352,$s))  
variable      randni equal round(random(1,1352,234897))  
variable      randatomi equal ${randni}                   # This is to obtain an integer number for atom-id
variable      randatomi equal 352                   
variable      randzi equal z[${randatomi}]                # Determine the z coordinate of the chosen atom
variable      randzi equal z[352]                
# if the chosen atom is not a surface atom then restart the loop
if            "${randzi} < $(v_wthick - 0.7)" then "jump MDPBB.in loop"
jump MDPBB.in loop
variable      randni equal round(random(1,${ntwall},$s))  # Pick a random "top" wall atom
variable      randni equal round(random(1,1352,$s))  
variable      randni equal round(random(1,1352,234897))  
variable      randatomi equal ${randni}                   # This is to obtain an integer number for atom-id
variable      randatomi equal 898                   
variable      randzi equal z[${randatomi}]                # Determine the z coordinate of the chosen atom
variable      randzi equal z[898]                
# if the chosen atom is not a surface atom then restart the loop
if            "${randzi} < $(v_wthick - 0.7)" then "jump MDPBB.in loop"
jump MDPBB.in loop
variable      randni equal round(random(1,${ntwall},$s))  # Pick a random "top" wall atom
variable      randni equal round(random(1,1352,$s))  
variable      randni equal round(random(1,1352,234897))  
variable      randatomi equal ${randni}                   # This is to obtain an integer number for atom-id
variable      randatomi equal 631                   
variable      randzi equal z[${randatomi}]                # Determine the z coordinate of the chosen atom
variable      randzi equal z[631]                
# if the chosen atom is not a surface atom then restart the loop
if            "${randzi} < $(v_wthick - 0.7)" then "jump MDPBB.in loop"
set           atom ${randatomi} type 4                    # Set this grafted wall atom as a new type
set           atom 631 type 4                    
  1 settings made for type
group         twg id ${randatomi}                         # Add this atom to a top-wall-grafted group
group         twg id 631                         
10 atoms in group twg
variable      twgcount equal count(twg)
print         "twg contains ${twgcount}"
twg contains 10
print         "i = $(v_i)"                                # The index i should always be equal to the number of atom in twg
i = 10
variable      x0 equal x[${randatomi}]                    # Determine its x-coord
variable      x0 equal x[631]                    
variable      y0 equal y[${randatomi}]                    # Determine its y-coord
variable      y0 equal y[631]                    
variable      check0 equal ${check}                       # Count the number of atoms in the simulation
variable      check0 equal 1622                       
variable      b equal ${check}+1                          # The grafted bead id will be one higher after being inserted
variable      b equal 1622+1                          
if            "${twgcount} != $(v_i)" then "jump MDPBB.in loop"
# Otherwise insert the chain directly above the chosen wall atom pointing perpendicular to the wall
create_atoms  1 single ${x0} ${y0} ${z0} mol bs 24987 units box remap yes rotate 0 0 0 1
create_atoms  1 single 2.3811015779523 ${y0} ${z0} mol bs 24987 units box remap yes rotate 0 0 0 1
create_atoms  1 single 2.3811015779523 17.4614115716502 ${z0} mol bs 24987 units box remap yes rotate 0 0 0 1
create_atoms  1 single 2.3811015779523 17.4614115716502 17 mol bs 24987 units box remap yes rotate 0 0 0 1
Created 30 atoms
  create_atoms CPU = 0.00030899 secs
variable      check1 equal ${check}               # Count the new total number of atoms
variable      check1 equal 1652               
# Check that the molecule has indeed been inserted (This check is no longer an issue).
if            "${check1} != ${check0}" then "create_bonds  single/bond 2 ${randatomi} $b" "next i"
create_bonds  single/bond 2 ${randatomi} $b
create_bonds  single/bond 2 631 $b
create_bonds  single/bond 2 631 1623
  2 = max # of 1-2 neighbors
  5 = max # of special neighbors
  special bonds CPU = 0.000710964 secs
next i
jump MDPBB.in loop    # End of the loop
variable      randni equal round(random(1,${ntwall},$s))  # Pick a random "top" wall atom
variable      randni equal round(random(1,1352,$s))  
variable      randni equal round(random(1,1352,234897))  
variable      randatomi equal ${randni}                   # This is to obtain an integer number for atom-id
variable      randatomi equal 196                   
variable      randzi equal z[${randatomi}]                # Determine the z coordinate of the chosen atom
variable      randzi equal z[196]                
# if the chosen atom is not a surface atom then restart the loop
if            "${randzi} < $(v_wthick - 0.7)" then "jump MDPBB.in loop"
jump MDPBB.in loop
variable      randni equal round(random(1,${ntwall},$s))  # Pick a random "top" wall atom
variable      randni equal round(random(1,1352,$s))  
variable      randni equal round(random(1,1352,234897))  
variable      randatomi equal ${randni}                   # This is to obtain an integer number for atom-id
variable      randatomi equal 1245                   
variable      randzi equal z[${randatomi}]                # Determine the z coordinate of the chosen atom
variable      randzi equal z[1245]                
# if the chosen atom is not a surface atom then restart the loop
if            "${randzi} < $(v_wthick - 0.7)" then "jump MDPBB.in loop"
jump MDPBB.in loop
variable      randni equal round(random(1,${ntwall},$s))  # Pick a random "top" wall atom
variable      randni equal round(random(1,1352,$s))  
variable      randni equal round(random(1,1352,234897))  
variable      randatomi equal ${randni}                   # This is to obtain an integer number for atom-id
variable      randatomi equal 1293                   
variable      randzi equal z[${randatomi}]                # Determine the z coordinate of the chosen atom
variable      randzi equal z[1293]                
# if the chosen atom is not a surface atom then restart the loop
if            "${randzi} < $(v_wthick - 0.7)" then "jump MDPBB.in loop"
jump MDPBB.in loop
variable      randni equal round(random(1,${ntwall},$s))  # Pick a random "top" wall atom
variable      randni equal round(random(1,1352,$s))  
variable      randni equal round(random(1,1352,234897))  
variable      randatomi equal ${randni}                   # This is to obtain an integer number for atom-id
variable      randatomi equal 1223                   
variable      randzi equal z[${randatomi}]                # Determine the z coordinate of the chosen atom
variable      randzi equal z[1223]                
# if the chosen atom is not a surface atom then restart the loop
if            "${randzi} < $(v_wthick - 0.7)" then "jump MDPBB.in loop"
jump MDPBB.in loop
variable      randni equal round(random(1,${ntwall},$s))  # Pick a random "top" wall atom
variable      randni equal round(random(1,1352,$s))  
variable      randni equal round(random(1,1352,234897))  
variable      randatomi equal ${randni}                   # This is to obtain an integer number for atom-id
variable      randatomi equal 1078                   
variable      randzi equal z[${randatomi}]                # Determine the z coordinate of the chosen atom
variable      randzi equal z[1078]                
# if the chosen atom is not a surface atom then restart the loop
if            "${randzi} < $(v_wthick - 0.7)" then "jump MDPBB.in loop"
jump MDPBB.in loop
variable      randni equal round(random(1,${ntwall},$s))  # Pick a random "top" wall atom
variable      randni equal round(random(1,1352,$s))  
variable      randni equal round(random(1,1352,234897))  
variable      randatomi equal ${randni}                   # This is to obtain an integer number for atom-id
variable      randatomi equal 594                   
variable      randzi equal z[${randatomi}]                # Determine the z coordinate of the chosen atom
variable      randzi equal z[594]                
# if the chosen atom is not a surface atom then restart the loop
if            "${randzi} < $(v_wthick - 0.7)" then "jump MDPBB.in loop"
jump MDPBB.in loop
variable      randni equal round(random(1,${ntwall},$s))  # Pick a random "top" wall atom
variable      randni equal round(random(1,1352,$s))  
variable      randni equal round(random(1,1352,234897))  
variable      randatomi equal ${randni}                   # This is to obtain an integer number for atom-id
variable      randatomi equal 502                   
variable      randzi equal z[${randatomi}]                # Determine the z coordinate of the chosen atom
variable      randzi equal z[502]                
# if the chosen atom is not a surface atom then restart the loop
if            "${randzi} < $(v_wthick - 0.7)" then "jump MDPBB.in loop"
jump MDPBB.in loop
variable      randni equal round(random(1,${ntwall},$s))  # Pick a random "top" wall atom
variable      randni equal round(random(1,1352,$s))  
variable      randni equal round(random(1,1352,234897))  
variable      randatomi equal ${randni}                   # This is to obtain an integer number for atom-id
variable      randatomi equal 948                   
variable      randzi equal z[${randatomi}]                # Determine the z coordinate of the chosen atom
variable      randzi equal z[948]                
# if the chosen atom is not a surface atom then restart the loop
if            "${randzi} < $(v_wthick - 0.7)" then "jump MDPBB.in loop"
set           atom ${randatomi} type 4                    # Set this grafted wall atom as a new type
set           atom 948 type 4                    
  1 settings made for type
group         twg id ${randatomi}                         # Add this atom to a top-wall-grafted group
group         twg id 948                         
11 atoms in group twg
variable      twgcount equal count(twg)
print         "twg contains ${twgcount}"
twg contains 11
print         "i = $(v_i)"                                # The index i should always be equal to the number of atom in twg
i = 11
variable      x0 equal x[${randatomi}]                    # Determine its x-coord
variable      x0 equal x[948]                    
variable      y0 equal y[${randatomi}]                    # Determine its y-coord
variable      y0 equal y[948]                    
variable      check0 equal ${check}                       # Count the number of atoms in the simulation
variable      check0 equal 1652                       
variable      b equal ${check}+1                          # The grafted bead id will be one higher after being inserted
variable      b equal 1652+1                          
if            "${twgcount} != $(v_i)" then "jump MDPBB.in loop"
# Otherwise insert the chain directly above the chosen wall atom pointing perpendicular to the wall
create_atoms  1 single ${x0} ${y0} ${z0} mol bs 24987 units box remap yes rotate 0 0 0 1
create_atoms  1 single 19.8425131496025 ${y0} ${z0} mol bs 24987 units box remap yes rotate 0 0 0 1
create_atoms  1 single 19.8425131496025 4.7622031559046 ${z0} mol bs 24987 units box remap yes rotate 0 0 0 1
create_atoms  1 single 19.8425131496025 4.7622031559046 17 mol bs 24987 units box remap yes rotate 0 0 0 1
Created 30 atoms
  create_atoms CPU = 0.000298977 secs
variable      check1 equal ${check}               # Count the new total number of atoms
variable      check1 equal 1682               
# Check that the molecule has indeed been inserted (This check is no longer an issue).
if            "${check1} != ${check0}" then "create_bonds  single/bond 2 ${randatomi} $b" "next i"
create_bonds  single/bond 2 ${randatomi} $b
create_bonds  single/bond 2 948 $b
create_bonds  single/bond 2 948 1653
  2 = max # of 1-2 neighbors
  5 = max # of special neighbors
  special bonds CPU = 0.000707865 secs
next i
jump MDPBB.in loop    # End of the loop
variable      randni equal round(random(1,${ntwall},$s))  # Pick a random "top" wall atom
variable      randni equal round(random(1,1352,$s))  
variable      randni equal round(random(1,1352,234897))  
variable      randatomi equal ${randni}                   # This is to obtain an integer number for atom-id
variable      randatomi equal 127                   
variable      randzi equal z[${randatomi}]                # Determine the z coordinate of the chosen atom
variable      randzi equal z[127]                
# if the chosen atom is not a surface atom then restart the loop
if            "${randzi} < $(v_wthick - 0.7)" then "jump MDPBB.in loop"
jump MDPBB.in loop
variable      randni equal round(random(1,${ntwall},$s))  # Pick a random "top" wall atom
variable      randni equal round(random(1,1352,$s))  
variable      randni equal round(random(1,1352,234897))  
variable      randatomi equal ${randni}                   # This is to obtain an integer number for atom-id
variable      randatomi equal 512                   
variable      randzi equal z[${randatomi}]                # Determine the z coordinate of the chosen atom
variable      randzi equal z[512]                
# if the chosen atom is not a surface atom then restart the loop
if            "${randzi} < $(v_wthick - 0.7)" then "jump MDPBB.in loop"
jump MDPBB.in loop
variable      randni equal round(random(1,${ntwall},$s))  # Pick a random "top" wall atom
variable      randni equal round(random(1,1352,$s))  
variable      randni equal round(random(1,1352,234897))  
variable      randatomi equal ${randni}                   # This is to obtain an integer number for atom-id
variable      randatomi equal 590                   
variable      randzi equal z[${randatomi}]                # Determine the z coordinate of the chosen atom
variable      randzi equal z[590]                
# if the chosen atom is not a surface atom then restart the loop
if            "${randzi} < $(v_wthick - 0.7)" then "jump MDPBB.in loop"
jump MDPBB.in loop
variable      randni equal round(random(1,${ntwall},$s))  # Pick a random "top" wall atom
variable      randni equal round(random(1,1352,$s))  
variable      randni equal round(random(1,1352,234897))  
variable      randatomi equal ${randni}                   # This is to obtain an integer number for atom-id
variable      randatomi equal 445                   
variable      randzi equal z[${randatomi}]                # Determine the z coordinate of the chosen atom
variable      randzi equal z[445]                
# if the chosen atom is not a surface atom then restart the loop
if            "${randzi} < $(v_wthick - 0.7)" then "jump MDPBB.in loop"
jump MDPBB.in loop
variable      randni equal round(random(1,${ntwall},$s))  # Pick a random "top" wall atom
variable      randni equal round(random(1,1352,$s))  
variable      randni equal round(random(1,1352,234897))  
variable      randatomi equal ${randni}                   # This is to obtain an integer number for atom-id
variable      randatomi equal 825                   
variable      randzi equal z[${randatomi}]                # Determine the z coordinate of the chosen atom
variable      randzi equal z[825]                
# if the chosen atom is not a surface atom then restart the loop
if            "${randzi} < $(v_wthick - 0.7)" then "jump MDPBB.in loop"
jump MDPBB.in loop
variable      randni equal round(random(1,${ntwall},$s))  # Pick a random "top" wall atom
variable      randni equal round(random(1,1352,$s))  
variable      randni equal round(random(1,1352,234897))  
variable      randatomi equal ${randni}                   # This is to obtain an integer number for atom-id
variable      randatomi equal 387                   
variable      randzi equal z[${randatomi}]                # Determine the z coordinate of the chosen atom
variable      randzi equal z[387]                
# if the chosen atom is not a surface atom then restart the loop
if            "${randzi} < $(v_wthick - 0.7)" then "jump MDPBB.in loop"
jump MDPBB.in loop
variable      randni equal round(random(1,${ntwall},$s))  # Pick a random "top" wall atom
variable      randni equal round(random(1,1352,$s))  
variable      randni equal round(random(1,1352,234897))  
variable      randatomi equal ${randni}                   # This is to obtain an integer number for atom-id
variable      randatomi equal 323                   
variable      randzi equal z[${randatomi}]                # Determine the z coordinate of the chosen atom
variable      randzi equal z[323]                
# if the chosen atom is not a surface atom then restart the loop
if            "${randzi} < $(v_wthick - 0.7)" then "jump MDPBB.in loop"
set           atom ${randatomi} type 4                    # Set this grafted wall atom as a new type
set           atom 323 type 4                    
  1 settings made for type
group         twg id ${randatomi}                         # Add this atom to a top-wall-grafted group
group         twg id 323                         
12 atoms in group twg
variable      twgcount equal count(twg)
print         "twg contains ${twgcount}"
twg contains 12
print         "i = $(v_i)"                                # The index i should always be equal to the number of atom in twg
i = 12
variable      x0 equal x[${randatomi}]                    # Determine its x-coord
variable      x0 equal x[323]                    
variable      y0 equal y[${randatomi}]                    # Determine its y-coord
variable      y0 equal y[323]                    
variable      check0 equal ${check}                       # Count the number of atoms in the simulation
variable      check0 equal 1682                       
variable      b equal ${check}+1                          # The grafted bead id will be one higher after being inserted
variable      b equal 1682+1                          
if            "${twgcount} != $(v_i)" then "jump MDPBB.in loop"
# Otherwise insert the chain directly above the chosen wall atom pointing perpendicular to the wall
create_atoms  1 single ${x0} ${y0} ${z0} mol bs 24987 units box remap yes rotate 0 0 0 1
create_atoms  1 single 7.937005259841 ${y0} ${z0} mol bs 24987 units box remap yes rotate 0 0 0 1
create_atoms  1 single 7.937005259841 8.7307057858251 ${z0} mol bs 24987 units box remap yes rotate 0 0 0 1
create_atoms  1 single 7.937005259841 8.7307057858251 17 mol bs 24987 units box remap yes rotate 0 0 0 1
Created 30 atoms
  create_atoms CPU = 0.000319958 secs
variable      check1 equal ${check}               # Count the new total number of atoms
variable      check1 equal 1712               
# Check that the molecule has indeed been inserted (This check is no longer an issue).
if            "${check1} != ${check0}" then "create_bonds  single/bond 2 ${randatomi} $b" "next i"
create_bonds  single/bond 2 ${randatomi} $b
create_bonds  single/bond 2 323 $b
create_bonds  single/bond 2 323 1683
  2 = max # of 1-2 neighbors
  5 = max # of special neighbors
  special bonds CPU = 0.00070405 secs
next i
jump MDPBB.in loop    # End of the loop
variable      randni equal round(random(1,${ntwall},$s))  # Pick a random "top" wall atom
variable      randni equal round(random(1,1352,$s))  
variable      randni equal round(random(1,1352,234897))  
variable      randatomi equal ${randni}                   # This is to obtain an integer number for atom-id
variable      randatomi equal 117                   
variable      randzi equal z[${randatomi}]                # Determine the z coordinate of the chosen atom
variable      randzi equal z[117]                
# if the chosen atom is not a surface atom then restart the loop
if            "${randzi} < $(v_wthick - 0.7)" then "jump MDPBB.in loop"
jump MDPBB.in loop
variable      randni equal round(random(1,${ntwall},$s))  # Pick a random "top" wall atom
variable      randni equal round(random(1,1352,$s))  
variable      randni equal round(random(1,1352,234897))  
variable      randatomi equal ${randni}                   # This is to obtain an integer number for atom-id
variable      randatomi equal 921                   
variable      randzi equal z[${randatomi}]                # Determine the z coordinate of the chosen atom
variable      randzi equal z[921]                
# if the chosen atom is not a surface atom then restart the loop
if            "${randzi} < $(v_wthick - 0.7)" then "jump MDPBB.in loop"
jump MDPBB.in loop
variable      randni equal round(random(1,${ntwall},$s))  # Pick a random "top" wall atom
variable      randni equal round(random(1,1352,$s))  
variable      randni equal round(random(1,1352,234897))  
variable      randatomi equal ${randni}                   # This is to obtain an integer number for atom-id
variable      randatomi equal 992                   
variable      randzi equal z[${randatomi}]                # Determine the z coordinate of the chosen atom
variable      randzi equal z[992]                
# if the chosen atom is not a surface atom then restart the loop
if            "${randzi} < $(v_wthick - 0.7)" then "jump MDPBB.in loop"
set           atom ${randatomi} type 4                    # Set this grafted wall atom as a new type
set           atom 992 type 4                    
  1 settings made for type
group         twg id ${randatomi}                         # Add this atom to a top-wall-grafted group
group         twg id 992                         
13 atoms in group twg
variable      twgcount equal count(twg)
print         "twg contains ${twgcount}"
twg contains 13
print         "i = $(v_i)"                                # The index i should always be equal to the number of atom in twg
i = 13
variable      x0 equal x[${randatomi}]                    # Determine its x-coord
variable      x0 equal x[992]                    
variable      y0 equal y[${randatomi}]                    # Determine its y-coord
variable      y0 equal y[992]                    
variable      check0 equal ${check}                       # Count the number of atoms in the simulation
variable      check0 equal 1712                       
variable      b equal ${check}+1                          # The grafted bead id will be one higher after being inserted
variable      b equal 1712+1                          
if            "${twgcount} != $(v_i)" then "jump MDPBB.in loop"
# Otherwise insert the chain directly above the chosen wall atom pointing perpendicular to the wall
create_atoms  1 single ${x0} ${y0} ${z0} mol bs 24987 units box remap yes rotate 0 0 0 1
create_atoms  1 single 16.6677110456661 ${y0} ${z0} mol bs 24987 units box remap yes rotate 0 0 0 1
create_atoms  1 single 16.6677110456661 7.937005259841 ${z0} mol bs 24987 units box remap yes rotate 0 0 0 1
create_atoms  1 single 16.6677110456661 7.937005259841 17 mol bs 24987 units box remap yes rotate 0 0 0 1
Created 30 atoms
  create_atoms CPU = 0.000317097 secs
variable      check1 equal ${check}               # Count the new total number of atoms
variable      check1 equal 1742               
# Check that the molecule has indeed been inserted (This check is no longer an issue).
if            "${check1} != ${check0}" then "create_bonds  single/bond 2 ${randatomi} $b" "next i"
create_bonds  single/bond 2 ${randatomi} $b
create_bonds  single/bond 2 992 $b
create_bonds  single/bond 2 992 1713
  2 = max # of 1-2 neighbors
  5 = max # of special neighbors
  special bonds CPU = 0.00070405 secs
next i
jump MDPBB.in loop    # End of the loop
variable      randni equal round(random(1,${ntwall},$s))  # Pick a random "top" wall atom
variable      randni equal round(random(1,1352,$s))  
variable      randni equal round(random(1,1352,234897))  
variable      randatomi equal ${randni}                   # This is to obtain an integer number for atom-id
variable      randatomi equal 456                   
variable      randzi equal z[${randatomi}]                # Determine the z coordinate of the chosen atom
variable      randzi equal z[456]                
# if the chosen atom is not a surface atom then restart the loop
if            "${randzi} < $(v_wthick - 0.7)" then "jump MDPBB.in loop"
jump MDPBB.in loop
variable      randni equal round(random(1,${ntwall},$s))  # Pick a random "top" wall atom
variable      randni equal round(random(1,1352,$s))  
[...]
 4957000    11.884072    1.4338616     10.45021  -0.15459666   0.95615267    1.2891978   0.80877385    -1.183432            1     5.427819    7.9617845    8.0277807   0.29389188 -0.0012316736  -0.02644184  0.063474301    5.2372553    5.2930762   0.69302525         0.05    1.9406156          0.5   0.11550421    4.3288466    2.7909926    28.679598   0.01726296  -0.16138017 -0.0098256724   0.17373991    1.4081646    2.4827327 
 4958000    11.913698    1.4202378     10.49346  -0.15427515   0.94706779    1.2551556   0.81075622    -1.183432            1    5.3952103    7.9617548    7.9732694   0.25060678  -0.01690935  -0.15872658 -0.051315665    5.2041796    5.2640255   0.71302738         0.05    1.8797213          0.5    0.1188379    4.2074121    2.8254346    28.679598 -0.017048935  -0.20614016  0.010751931   0.21412751    2.8955084  0.075527582 
 4959000    11.867349     1.413824    10.453525  -0.16446444   0.94279082    1.2633374   0.80095117    -1.183432            1     5.685376    8.1809708    8.1676508   0.70750642  0.025225504  0.068072015 0.00054247378    5.4966555     5.553336   0.71740535         0.05    1.8700019          0.5   0.11956756    4.1817363    2.8210674    28.679598 -0.012186887   -0.1818062 8.8020349e-06   0.15415617   -1.2418638    4.4356484 
 4960000    11.856122     1.400964    10.455158   -0.1501448    0.9342153    1.2480591   0.79534572    -1.183432            1    5.2782721    7.8563692    7.8601957   0.11825144 -0.025359483 -0.00026618349  0.022285364    5.0908724     5.147829   0.70104924         0.05    1.8790829          0.5   0.11684154       4.2793    2.8190886    28.679598  0.023426533  -0.24286686  0.010985189   0.22423288 -0.064783344   -5.1716079 
 4961000    11.894458    1.4179073    10.476551  -0.16800178   0.94551375    1.2813375   0.79689844    -1.183432            1    5.3726581    7.9410327    8.0092955   0.16764604 0.0097242373  0.066672525  0.033228337    5.1848925    5.2387368   0.70786194         0.05     1.905194          0.5   0.11797699    4.2381145    2.8375131    28.679598 -0.0034256078  -0.19363403  0.011903707   0.17674952  -0.15414266   0.65261368 
 4962000    11.914559    1.4046228    10.509937  -0.15015274   0.93665513    1.2946939   0.77818236    -1.183432            1    5.4726108    8.0574145     7.996821   0.36359691 -0.011277322  -0.12982217  0.038121371    5.2892551    5.3372935   0.71057268         0.05    1.9093002          0.5   0.11842878    4.2219467    2.8088978    28.679598  0.017835375  -0.17768667 0.0027419499   0.21414991   0.88927212   0.79597121 
 4963000    11.933638    1.4104444    10.523193  -0.14152098   0.94053717    1.2399214   0.80808393    -1.183432            1    5.3661399     7.972393    7.9724699   0.15355693  0.007514817 -0.042629717  -0.04795098    5.1757388    5.2365473   0.69805146         0.05    1.9373344          0.5   0.11634191    4.2976774    2.8088656    28.679598  -0.01450021  -0.13353809 0.0070754862    0.2084736   -1.2021026    2.7423699 
 4964000    11.941357     1.425422    10.515935  -0.14882498   0.95052482    1.2886991   0.80086871    -1.183432            1    5.5163314    8.0364671    8.0906667   0.42186028 -0.0018384281 -0.036049718 -0.049123907    5.3276303    5.3816407    0.7211428         0.05    1.9258483          0.5   0.12019047    4.1600637     2.809517    28.679598  0.010906381  -0.20411499 0.0096077985   0.13705123    2.2192661    1.7454183 
 4965000    11.915704    1.4328011    10.482903  -0.15295943   0.95544545    1.2949153   0.80521646    -1.183432            1    5.6420819     8.116444    8.1626187   0.64718316  0.017308681  0.031614151  0.025513641    5.4523565    5.5067415   0.71845572         0.05    1.9607417          0.5   0.11974262    4.1756227    2.8087325    28.679598  0.010001943  -0.16032029 0.00097201444   0.25677162   -3.4922275    3.3676042 
 4966000    11.908067    1.4081571     10.49991  -0.14241346   0.93901196    1.2474105   0.80255957    -1.183432            1    5.5139751    8.0975727    8.0395002   0.40485224  0.010161349  -0.16061466  0.010503648    5.3248756    5.3835997   0.70305558         0.05    1.9140094          0.5   0.11717593     4.267088    2.8067438    28.679598 -0.016526581  -0.16871837 -0.015079667   0.24047492   0.84520948    2.1129916 
 4967000    11.941582    1.4380987    10.503483  -0.14693233   0.95897808    1.2795406   0.81713734    -1.183432            1    5.6476294    8.1444255    8.1756064   0.62285644 0.0033440998  0.061465757 -0.048574695    5.4550952    5.5138959   0.71249489         0.05    1.8895912          0.5   0.11874915    4.2105565    2.7802746    28.679598  0.010021484  -0.22936094  0.017978234   0.19799699    -2.245183     2.946701 
 4968000    11.890381    1.4083987    10.481982  -0.14996676   0.93917305    1.2665582    0.7942986    -1.183432            1    5.4568678    8.0300719    8.0362779   0.30425361 -0.001033248 0.0055149055  0.062795329    5.2697148    5.3244912   0.69299243         0.05    1.9249686          0.5   0.11549874    4.3290516     2.802387    28.679598 -0.028171243   -0.1686125 -0.012935399   0.14694629    2.3947368   -1.5901612 
 4969000    11.912595    1.4145868    10.498008   -0.1562034   0.94329948    1.2351271   0.81419922    -1.183432            1    5.5028499    8.0118272    8.0395144   0.45720801 0.00046610303  -0.23348553 -0.041545263    5.3110079    5.3737583   0.70880581         0.05    1.9490348          0.5    0.1181343    4.2324709    2.8076966    28.679598   0.01074754   -0.1609993 -0.009559652   0.20613453    1.8244367    2.7825247 
 4970000    11.879981    1.3857893    10.494192  -0.16026044   0.92409621    1.2171647   0.79443843    -1.183432            1    5.3798123    7.8970351    7.9904942   0.25190757 -0.039752384   0.19162226 0.0085734838    5.1926264    5.2525981   0.73077926         0.05    1.9386809          0.5   0.12179654    4.1052068    2.8308455    28.679598  0.031151499  -0.20357336 0.0069568843   0.17725068   -0.3852438  -0.60481111 
 4971000    11.869684    1.4052726    10.464411  -0.15539282    0.9370884    1.2347654   0.80539119    -1.183432            1    5.6465091    8.1535572    8.1463173   0.63965302 0.0043037193   0.15407531  0.011615854    5.4567425    5.5174554   0.71491282         0.05     1.934032          0.5   0.11915214    4.1963158    2.7828419    28.679598 -0.0031190538  -0.18616858 0.0072818979   0.18845534   -2.2017134    8.2049967 
 4972000    11.850188    1.3896821    10.460506  -0.14981308   0.92669207    1.2206617   0.79663553    -1.183432            1    5.6870147    8.1990797    8.2421845   0.61977987    0.0190605   0.10351678 -0.032262668    5.4993111     5.559435   0.70759918         0.05    1.8818305          0.5    0.1179332    4.2396883    2.8191045    28.679598  0.005380232  -0.16928103 -0.010195855   0.23649524    1.7900838     7.167692 
 4973000    11.844444    1.3794532    10.464991  -0.14909082   0.91987109     1.253883   0.77205002    -1.183432            1    5.5567106    8.0722545     8.106109   0.49176837 0.0051336299  -0.16856057  0.048618419    5.3747999    5.4256588   0.70480824         0.05     1.876732          0.5   0.11746804    4.2564769    2.8112504    28.679598 -0.028341473  -0.15676815 -0.0052553182   0.20148046    1.3880974    3.7681745 
 4974000    11.912156    1.4238975    10.488258  -0.15683768   0.94950823    1.2742108   0.80582756    -1.183432            1    5.5529853    8.0841011    8.0781862   0.49666863  -0.03858118 -0.022968962 -0.046400249    5.3631159    5.4198089   0.71357055         0.05    1.9189657          0.5   0.11892842    4.2042094    2.8268216    28.679598 -0.0020970007  -0.18080862 -0.0036630461   0.21287654  -0.43462154    6.4258498 
 4975000    11.916013    1.4117915    10.504221  -0.16125307   0.94143549     1.239178    0.8097108    -1.183432            1    5.1684547    7.7639313    7.8368566 -0.095423984  0.032557339   0.24529818 -0.087022622    4.9776702    5.0389397   0.69667582         0.05    1.9227817          0.5   0.11611264    4.3061635    2.7870181    28.679598 -0.00012411641  -0.20077193 0.0085033801   0.22053025     0.055549    -0.285342 
 4976000    11.925947    1.4225627    10.503385  -0.15923472   0.94861814    1.2606502   0.81055752    -1.183432            1    5.4327403    7.9663111     7.977448   0.35446171  0.029649391  -0.22391871 -0.017675049    5.2417563    5.3009811   0.71118635         0.05    1.9241299          0.5   0.11853106    4.2183037    2.8016903    28.679598 0.0082814721  -0.17415605  0.031504554    0.2471978    1.4019375    2.2074076 
 4977000      11.9114    1.4364091    10.474991  -0.15799817    0.9578514     1.270324   0.81959878    -1.183432            1    5.4620991    8.0118152    8.0189381    0.3555441  0.016906443 -0.036796475 0.00012750251    5.2689849    5.3293289   0.70170189         0.05    1.8889424          0.5   0.11695032    4.2753198    2.7939522    28.679598 -0.025429215  -0.23485062  0.010499835   0.21125969  -0.71222803   -1.9729378 
 4978000    11.882193    1.4003054    10.481888   -0.1509223   0.93377611    1.2649139   0.78723507    -1.183432            1    5.4158272    7.9893017     7.947237   0.31094288 -0.024312231 0.0048712672 -0.032993876    5.2303385    5.2836224   0.69857269         0.05    1.9302671          0.5   0.11642878    4.2944708    2.7992547    28.679598  -0.02203521  -0.20340376  0.015197667   0.13303942  -0.55529545  -0.30817713 
 4979000     11.91869    1.4327423    10.485948  -0.14165785   0.95540624    1.2972874   0.80410765    -1.183432            1     5.689811    8.2233797    8.2347199   0.61133349  0.026560615  0.041283468  0.036303352    5.5003468    5.5542227    0.7372568         0.05     1.951709          0.5   0.12287613    4.0691385    2.8415025    28.679598  0.020956471  -0.21248118 0.0064928895   0.26003584   -2.1800531    6.3709759 
 4980000    11.958136    1.4357479    10.522388  -0.15990071   0.95741051    1.2790625   0.81508593    -1.183432            1    5.5493775    8.0415663    8.1241334   0.48243291  0.013297054  -0.21818696   0.16731878    5.3573266     5.415694   0.71952966         0.05    1.9395602          0.5   0.11992161    4.1693903    2.7799125    28.679598 -0.022590901  -0.18744889 0.0061461385   0.16313923    2.8300307    3.6448421 
 4981000    11.880379    1.3934696     10.48691  -0.14735779   0.92921772    1.2723306   0.77736305    -1.183432            1     5.413757    8.0401855    7.9904269   0.21065867 -0.018830233 -0.085424867   0.13573758    5.2305944    5.2807771   0.70214347         0.05    1.8537388          0.5   0.11702391     4.272631    2.8241477    28.679598 0.0027712107  -0.16523337 0.0014129507   0.15987343    -1.876232    2.3581026 
 4982000    11.884702    1.4139268    10.470775  -0.16430465   0.94285937    1.2814611   0.79301084    -1.183432            1    5.6965321    8.2133514    8.1618023   0.71444269 -0.0019363926   0.10413893   0.04200613    5.5096826    5.5625979   0.70397527         0.05    1.8877261          0.5   0.11732921    4.2615133    2.7882772    28.679598 -0.0083255877   -0.1530216 -0.034460189    0.2017557  -0.41674147    4.1374565 
 4983000    11.901764    1.4339857    10.467778  -0.14904129    0.9562354    1.2829687   0.81165641    -1.183432            1    5.5755113    8.1262068    8.1166828   0.48364422  0.012254961  -0.27248296  0.082464306    5.3842684    5.4414195   0.70921251         0.05    1.9769916          0.5   0.11820208    4.2300439     2.809069    28.679598 -0.0021141227  -0.26398392 -0.014773779   0.20409032    0.8005602 -0.073367101 
 4984000     11.83721    1.3856203    10.451589  -0.15445654   0.92398355    1.2809396   0.76598641    -1.183432            1      5.36823    7.9781826    7.9702264   0.15628108 -0.0096934312   0.17288783  0.018849644     5.187748    5.2343503   0.72131933         0.05    1.9705928          0.5   0.12021989    4.1590456    2.8324757    28.679598  0.012423711  -0.21339193 -0.00077890241   0.14379421   -1.6385969  -0.91433165 
 4985000    11.904958    1.4259629    10.478995  -0.15417685   0.95088553     1.304767   0.79426217    -1.183432            1    5.3003934    7.9068871    7.9150974  0.079195515  0.014165734  -0.11715713  0.050205763    5.1132489    5.1640233   0.72215703         0.05    1.8903732          0.5    0.1203595    4.1542212    2.7989575    28.679598 0.0041687979  -0.16824219  0.013488162   0.23107558    1.4009881  -0.13094159 
 4986000    11.887199    1.3856521    10.501547  -0.13834859   0.92400472    1.2314774   0.78795747    -1.183432            1    5.3023161    7.8837423    7.9072234   0.11598257 0.0053602417 -0.036969946  -0.03002038    5.1166572     5.173606   0.69317161         0.05    1.9731207          0.5    0.1155286    4.3279326    2.8168837    28.679598 -0.0096305469  -0.19885296 0.0080667453   0.21589391  -0.61467255  -0.41336316 
 4987000    11.871781    1.4166273    10.455154  -0.16433447   0.94466019    1.2444578   0.81202511    -1.183432            1    5.6036878    8.0968254    8.1156513   0.59858661 0.0086728567  0.065310257   0.06680742    5.4123581     5.473621   0.70544596         0.05    1.9658476          0.5   0.11757433    4.2526291    2.7891425    28.679598 0.0085291036  -0.18689432 0.0039438093   0.21555573    1.3532007   -1.5636577 
 4988000    11.875256    1.4217052    10.453551  -0.14812848   0.94804629    1.2642813   0.80812112    -1.183432            1    5.5333086     8.151665    8.0759517   0.37230894 0.0043505215   0.03169931 -0.026609148    5.3428987    5.4011699   0.71959193         0.05     1.909048          0.5   0.11993199    4.1690295    2.8265275    28.679598 -0.012124632  -0.16150003 0.0069258738   0.21122284   -2.4025097    3.4352447 
 4989000    11.879213    1.4153097    10.463903  -0.15098172   0.94378155    1.2589195   0.80434146    -1.183432            1     5.444486    7.9954723     8.026887   0.31109861   0.01163603   0.15033181  0.050009148    5.2549667    5.3129078   0.68557839         0.05    1.9172648          0.5   0.11426306    4.3758672     2.775389    28.679598 -0.0014954233  -0.20623378 -0.012318375   0.17485423    0.3721315  -0.39855432 
 4990000    11.875511    1.3899135    10.485597  -0.15784892   0.92684639    1.1911491   0.80994955    -1.183432            1    5.4768806    8.0300786     8.118522   0.28204125 -0.012237809  0.026547849 -0.021071262      5.28604    5.3523855   0.71325685         0.05    1.9266794          0.5   0.11887614    4.2060585    2.8226555    28.679598   0.02429563  -0.19846404 0.0065388441   0.24570539  -0.85003968     1.376806 
 4991000    11.892743    1.4183618    10.474382  -0.14708982   0.94581678    1.2594807   0.80703129    -1.183432            1    5.4607683    8.0417925    8.0491422    0.2913703 -0.00099678325  -0.19161535  0.016734255    5.2706153    5.3291314   0.74974204         0.05     1.976113          0.5   0.12495701    4.0013763     2.833243    28.679598 -0.0091942729   -0.1730618 -0.0013327573   0.25898792  -0.49012938   -4.3155008 
 4992000    11.831533    1.3879627     10.44357  -0.15998534   0.92554558    1.2153419   0.79733979    -1.183432            1    5.5076474    8.0740206    8.0775998   0.37132172 0.00022671359  -0.16057628 -0.073359182    5.3197778    5.3806237   0.71009477         0.05    1.9816341          0.5   0.11834913    4.2247882    2.8152325    28.679598 0.0020974312  -0.17041162 -0.0061111924   0.16959827     2.146252    1.4240148 
 4993000    11.833518    1.3631761    10.470342  -0.15232781    0.9090169    1.1837393   0.78749149    -1.183432            1    5.2605486    7.8825613     7.872755  0.026329638  0.030069018   0.13965274 -0.058970294    5.0749995     5.136828   0.70197975         0.05     1.976145          0.5   0.11699663    4.2736275    2.8277583    28.679598 -0.0020673019  -0.19960187 -0.027156041   0.15761003    1.0726701   -3.0317194 
 4994000    11.851413    1.3982145    10.453199  -0.16682759   0.93238181    1.2355152   0.79826248    -1.183432            1    5.5280078    8.0987062    8.0222861   0.46303111  0.010706899  -0.26471973   0.13554193    5.3399208    5.3988757   0.73420582         0.05    1.9369302          0.5   0.12236764    4.0860477     2.805261    28.679598 0.0014256272  -0.19389363 -0.018497823   0.23914394   -0.8022247    2.8778053 
 4995000    11.859694    1.4173573    10.442337  -0.15990118   0.94514695    1.2477665   0.81126029    -1.183432            1    5.7101561    8.1982105    8.2127031    0.7195548  0.012209467  -0.10574933 0.0066741797    5.5190066    5.5797436   0.73218156         0.05    1.9701186          0.5   0.12203026    4.0973444    2.8322811    28.679598 -0.022708881  -0.19559224 -0.0058046314   0.16792215   0.10016952    1.1911079 
 4996000    11.870746    1.3944959     10.47625  -0.14481953   0.92990213    1.2125235   0.80488061    -1.183432            1    5.4202665    7.9888234    8.0199676   0.25200852 0.0042482692  0.031929936  0.089112542    5.2306202    5.2935375   0.70063193         0.05    1.9896092          0.5   0.11677199    4.2818488    2.8163455    28.679598 -0.019653549  -0.26102935 0.0030152675   0.21194971     2.266755   -1.2916108 
 4997000    11.874178    1.3986595    10.475519  -0.13761102   0.93267857    1.2458484   0.79410738    -1.183432            1    5.6395967    8.1801769    8.1703575   0.56825579  0.022884197  0.076536603 -0.0071249245    5.4524888    5.5093846   0.71876256         0.05    1.9624838          0.5   0.11979376    4.1738401    2.7887852    28.679598  0.013331753  -0.17979046  0.020528081   0.19113274   -1.1586637    4.8442004 
 4998000    11.890897    1.4065866     10.48431  -0.15657219   0.93796463    1.2304337   0.80857788    -1.183432            1    5.3758974    7.9675721    7.9550327   0.20508723  0.023324949 -0.051649121 -0.071426155    5.1853799    5.2472964   0.71844528         0.05     1.996177          0.5   0.11974088    4.1756834    2.7833802    28.679598 -5.8906473e-05  -0.12753068  -0.01362881   0.13634898   -1.4119868    1.4505639 
 4999000    11.886849    1.4144722    10.472377   -0.1567862   0.94322306    1.2229379   0.81949577    -1.183432            1    5.6087386    8.1586282     8.108434   0.55915364  0.016511673 -0.085782846 0.0075382359    5.4156486    5.4809211   0.72770831         0.05    1.9756241          0.5   0.12128472    4.1225309    2.8157065    28.679598 0.0058614882  -0.20075643 0.0038558816   0.17209391   -2.7924585  -0.32248657 
 5000000    11.865165    1.4014179    10.463747  -0.15188834   0.93451796    1.2367421   0.80080276    -1.183432            1    5.2938551    7.8739416    7.8893193   0.11830443 -0.023575575  0.020292663 -0.034746192    5.1051696    5.1645948   0.70041957         0.05    1.9934601          0.5    0.1167366     4.283147    2.8150845    28.679598 -0.026306161  -0.15319605 0.0027959076   0.19001655   -2.1466314   -6.8756306 
Loop time of 1462.54 on 32 procs for 4000000 steps with 3904 atoms

Performance: 1181503.469 tau/day, 2734.962 timesteps/s
100.0% CPU use with 32 MPI tasks x no OpenMP threads

MPI task timing breakdown:
Section |  min time  |  avg time  |  max time  |%varavg| %total
---------------------------------------------------------------
Pair    | 0.53733    | 17.192     | 90.007     | 713.7 |  1.18
Bond    | 1.2151     | 68.537     | 272.64     |1249.2 |  4.69
Neigh   | 239.34     | 254.76     | 272.74     |  89.4 | 17.42
Comm    | 19.154     | 110.85     | 337.53     |1016.8 |  7.58
Output  | 2.8034     | 2.8539     | 4.3529     |  15.9 |  0.20
Modify  | 630.03     | 880.07     | 1024.8     | 591.6 | 60.17
Other   |            | 128.3      |            |       |  8.77

Nlocal:    122 ave 380 max 0 min
Histogram: 20 0 0 0 0 0 2 2 3 5
Nghost:    202.906 ave 652 max 0 min
Histogram: 16 0 4 0 0 2 5 1 0 4
Neighs:    134.75 ave 935 max 0 min
Histogram: 24 1 2 1 0 0 0 1 1 2

Total # of neighbors = 4312
Ave neighs/atom = 1.10451
Ave special neighs/atom = 7.75
Neighbor list builds = 579658
Dangerous builds = 0
