LAMMPS (5 Jun 2019)
OMP_NUM_THREADS environment is not set. Defaulting to 1 thread. (src/comm.cpp:88)
  using 1 OpenMP thread(s) per MPI task
#--- Brush Variables---#
variable      M      equal  30                 # The number of polymer chains on each brush
variable      N      string 30                 # The number of beads per chain
variable      xhi    equal  20                 # The width of the polymer Brush
variable      yhi    equal  20                 # The length of the polymer Brush
variable      wthick equal  3                  # The thickness of the walls wthick=1,2,3,4 gives 2,3,4,6 layers respectively

#--- Simulation Variables ---#
variable       Temp      index 1        #0.8 1 1.68                 #[Grest96]
variable       Tstep     equal 0.005                       # Timestep in Tau (default = 0.005)
variable       Nequil    equal 300000                       # Number of timesteps to equilibrate
variable       Ncomp     equal 400000                     # Number of timesteps to compress - until no more occilation of walls
variable       Nshear    equal 1000000      #2000000                      # Number of timesteps to shear - use approx 4ns for 10m/s
variable       Nthermo   equal 1000                        # Number of timesteps between thermo data prints
variable       Ndump_e   equal 10000
variable       Ndump_c   equal 10000                      # Number of timesteps per dump file (compression)
variable       Ndump_s   equal 10000                       # Number of timesteps per dump file (shear)
variable       Wall_v    index 0.5          #0.001 0.01 0.1 0.2 0.4 0.6 0.8 1 1.2 1.4 1.6 1.8 2   # 0.005 0.05 0.1 0.5 1.5 0.001 0.003 0.2 0.0002 2                      # Wall velocity (A/fs) - equal to 10 m/s
variable       Pcomp     index 3 #3 4 5 8 10 1.50 0.5 0.05

include        MDPBB.in
# This is an input script that creates a mono disperse polymer brush bilayer
# A coarse grained bead-spring model is used for the polymers which are end
# grafted to the surfaces of 2 opposing FCC walls at random sites.

#--- Initialization ---#

dimension     3
boundary      p p f
units         lj
atom_style    bond


#--- Moved to main.in ---#
#variable      M      equal  50                # The number of polymer chains on each brush
#variable      N      string 80                # The number of beads per chain
#variable      xhi    equal  15                # The width of the polymer Brush
#variable      yhi    equal  20                # The length of the polymer Brush
#variable      wthick equal  3                 # The thickness of the walls wthick=1,2,3,4 gives 2,3,4,6 layers respectively

variable      zhi    equal  $(1.1 * 2 * v_N + (2 * v_wthick))  # The initial height of the simulation box the value is such that no overlaps occur
variable      zhi    equal  72  
variable      z0     equal  $((v_zhi)/4 - (v_N)/30)          # This is the location at which to place the CoM of the molecule
variable      z0     equal  17          

print "The number of grafted chains = $(v_M)"
The number of grafted chains = 30
print "The number of beads per chain = $(v_N)"
The number of beads per chain = 30

variable      check  equal count(all)         # The number of atoms in the system
variable      ntwall equal count(twall)       # The number of atoms in the top wall
variable      nbwall equal count(bwall)       # The number of atoms in the bottom wall
variable      s equal 234897  #45335              # Seed for the RNG

print "zhi = ${zhi}"
zhi = 72

#--- Create the simulation box ---#

region        sbox block 0 ${xhi} 0 ${yhi} 0 ${zhi}
region        sbox block 0 20 0 ${yhi} 0 ${zhi}
region        sbox block 0 20 0 20 0 ${zhi}
region        sbox block 0 20 0 20 0 72
create_box    4 sbox bond/types 3 extra/bond/per/atom 12 extra/special/per/atom 2
Created orthogonal box = (0 0 0) to (20 20 72)
  1 by 1 by 1 MPI processor grid

mass          1 2.0                   # Wall atoms that are not grafted
mass          2 1.0                   # Grafted bead
mass          3 1.0                   # The rest of the beads on the chain
mass          4 2.0                   # Wall atoms that the chains are grafted to

bond_style    hybrid fene harmonic    # Finitely extensible linearly elastic bond between neighbouring beads
#bond_coeff    1 fene 30.0 1.5 0.0 0.0      # Values obtained from literature [Grest, Galushcko]
bond_coeff    1 fene 30.0 30.0 0.0 0.0
bond_coeff    2 fene 30.0 30.0 0.0 0.0       # This is the grafting bond between the polymer and the wall atom
special_bonds fene                    #
  0 = max # of 1-2 neighbors
  5 = max # of special neighbors
  special bonds CPU = 0.0004591 secs
pair_style	  lj/cut 1.122462         # LJ potential with rc=2^1/6
#pair_coeff	  * * 1.0 1.0             # LJ potential acts between all atoms
pair_coeff    1 1 0.0 0.0
pair_coeff    1 2 1.0 1.0
pair_coeff    1 3 1.0 1.0
pair_coeff    2 2 1.0 1.0
pair_coeff    2 3 1.0 1.0
pair_coeff    2 4 1.0 1.0
pair_coeff    3 3 1.0 1.0
pair_coeff    3 4 1.0 1.0
pair_coeff    4 4 0.0 0.0
neighbor      10 bin                  #
neigh_modify  one 4000

#--- Create and read the molecule file ---#
python        BSMolf input 1 $N format i file BSMolf.py
python        BSMolf input 1 30 format i file BSMolf.py
python        BSMolf invoke    # Call the python function with number of beads to write the mol file
molecule      bs     bsmol.txt     # Read the Mol file to define the polymer chain
Read molecule bs:
  30 atoms with max type 2
  29 bonds with max type 1
  0 angles with max type 0
  0 dihedrals with max type 0
  0 impropers with max type 0

#--- Define the FCC wall region ---#
region        wall  block 0 ${xhi} 0 ${yhi} 0 ${wthick}
region        wall  block 0 20 0 ${yhi} 0 ${wthick}
region        wall  block 0 20 0 20 0 ${wthick}
region        wall  block 0 20 0 20 0 3
lattice       fcc 1
Lattice spacing in x,y,z = 1.5874 1.5874 1.5874

#--- Create the Top Brush  (At the bottom then rotate 180 degrees to top) ---#

create_atoms  1 region wall
Created 1352 atoms
  create_atoms CPU = 0.0017624 secs
group         twall  region wall
1352 atoms in group twall
#group         tsurf  region wsurf

# A loop to insert the Chains into the sim box
variable      i loop $M                                   # Index to insert N total number of chains
variable      i loop 30                                   
label         loop                                        # Start of loop
variable      randni equal round(random(1,${ntwall},$s))  # Pick a random "top" wall atom
variable      randni equal round(random(1,1352,$s))  
variable      randni equal round(random(1,1352,234897))  
#print         "seed is = $s"
#print         "i = $(v_i)"
variable      randatomi equal ${randni}                   # This is to obtain an integer number for atom-id
variable      randatomi equal 850                   
variable      randzi equal z[${randatomi}]                # Determine the z coordinate of the chosen atom
variable      randzi equal z[850]                
#print         "z coord of randatom is = ${randzi}"
# if the chosen atom is not a surface atom then restart the loop
if            "${randzi} < $(v_wthick - 0.7)" then "jump MDPBB.in loop"
jump MDPBB.in loop
variable      randni equal round(random(1,${ntwall},$s))  # Pick a random "top" wall atom
variable      randni equal round(random(1,1352,$s))  
variable      randni equal round(random(1,1352,234897))  
#print         "seed is = $s"
#print         "i = $(v_i)"
variable      randatomi equal ${randni}                   # This is to obtain an integer number for atom-id
variable      randatomi equal 213                   
variable      randzi equal z[${randatomi}]                # Determine the z coordinate of the chosen atom
variable      randzi equal z[213]                
#print         "z coord of randatom is = ${randzi}"
# if the chosen atom is not a surface atom then restart the loop
if            "${randzi} < $(v_wthick - 0.7)" then "jump MDPBB.in loop"
jump MDPBB.in loop
variable      randni equal round(random(1,${ntwall},$s))  # Pick a random "top" wall atom
variable      randni equal round(random(1,1352,$s))  
variable      randni equal round(random(1,1352,234897))  
#print         "seed is = $s"
#print         "i = $(v_i)"
variable      randatomi equal ${randni}                   # This is to obtain an integer number for atom-id
variable      randatomi equal 1022                   
variable      randzi equal z[${randatomi}]                # Determine the z coordinate of the chosen atom
variable      randzi equal z[1022]                
#print         "z coord of randatom is = ${randzi}"
# if the chosen atom is not a surface atom then restart the loop
if            "${randzi} < $(v_wthick - 0.7)" then "jump MDPBB.in loop"
jump MDPBB.in loop
variable      randni equal round(random(1,${ntwall},$s))  # Pick a random "top" wall atom
variable      randni equal round(random(1,1352,$s))  
variable      randni equal round(random(1,1352,234897))  
#print         "seed is = $s"
#print         "i = $(v_i)"
variable      randatomi equal ${randni}                   # This is to obtain an integer number for atom-id
variable      randatomi equal 1031                   
variable      randzi equal z[${randatomi}]                # Determine the z coordinate of the chosen atom
variable      randzi equal z[1031]                
#print         "z coord of randatom is = ${randzi}"
# if the chosen atom is not a surface atom then restart the loop
if            "${randzi} < $(v_wthick - 0.7)" then "jump MDPBB.in loop"
set           atom ${randatomi} type 4                    # Set this grafted wall atom as a new type
set           atom 1031 type 4                    
  1 settings made for type
variable      x0 equal x[${randatomi}]                    # Determine its x-coord
variable      x0 equal x[1031]                    
variable      y0 equal y[${randatomi}]                    # Determine its y-coord
variable      y0 equal y[1031]                    
variable      check0 equal ${check}                       # Count the number of atoms in the simulation
variable      check0 equal 1352                       
variable      b equal ${check}+1                          # The grafted bead id will be one higher after being inserted
variable      b equal 1352+1                          
#print         "Grafted Bead ID = $b"
#print         "Random Wall atom = ${randatomi}"
#print         "x = ${x0}"
#print         "y = ${y0}"
variable      flag python A_Check         # Define a flag to check that the atom-id was not previously picked
# If flag = 1 then that means this random atom is already grafted if flag = 0 then atom is free to be grafted
# Define a python function that performs this check and keeps track throughout the loop to ensure no atom is picked twice
python        A_Check input 2 v_randatomi v_M return v_flag format iii file A_Check.py
variable      flag0 equal ${flag}                         # Invoke the python function
variable      flag0 equal 0                         
#print         "flag = ${flag0}"
# If the atom has been picked previously then do not insert and restart the loop
if            "${flag0} == 1" then "jump MDPBB.in loop"
# Otherwise insert the chain directly above the chosen wall atom pointing perpendicular to the wall
create_atoms  1 single ${x0} ${y0} ${z0} mol bs 24987 units box remap yes rotate 0 0 0 1
create_atoms  1 single 16.6677110456661 ${y0} ${z0} mol bs 24987 units box remap yes rotate 0 0 0 1
create_atoms  1 single 16.6677110456661 9.5244063118092 ${z0} mol bs 24987 units box remap yes rotate 0 0 0 1
create_atoms  1 single 16.6677110456661 9.5244063118092 17 mol bs 24987 units box remap yes rotate 0 0 0 1
Created 30 atoms
  create_atoms CPU = 0.000244 secs
variable      check1 equal ${check}               # Count the new total number of atoms
variable      check1 equal 1382               
# Check that the molecule has indeed been inserted (This check is no longer an issue).
if            "${check1} != ${check0}" then "create_bonds  single/bond 2 ${randatomi} $b" "next i"
create_bonds  single/bond 2 ${randatomi} $b
create_bonds  single/bond 2 1031 $b
create_bonds  single/bond 2 1031 1353
  2 = max # of 1-2 neighbors
  5 = max # of special neighbors
  special bonds CPU = 0.002298 secs
next i
jump MDPBB.in loop    # End of the loop
variable      randni equal round(random(1,${ntwall},$s))  # Pick a random "top" wall atom
variable      randni equal round(random(1,1352,$s))  
variable      randni equal round(random(1,1352,234897))  
#print         "seed is = $s"
#print         "i = $(v_i)"
variable      randatomi equal ${randni}                   # This is to obtain an integer number for atom-id
variable      randatomi equal 982                   
variable      randzi equal z[${randatomi}]                # Determine the z coordinate of the chosen atom
variable      randzi equal z[982]                
#print         "z coord of randatom is = ${randzi}"
# if the chosen atom is not a surface atom then restart the loop
if            "${randzi} < $(v_wthick - 0.7)" then "jump MDPBB.in loop"
jump MDPBB.in loop
variable      randni equal round(random(1,${ntwall},$s))  # Pick a random "top" wall atom
variable      randni equal round(random(1,1352,$s))  
variable      randni equal round(random(1,1352,234897))  
#print         "seed is = $s"
#print         "i = $(v_i)"
variable      randatomi equal ${randni}                   # This is to obtain an integer number for atom-id
variable      randatomi equal 1332                   
variable      randzi equal z[${randatomi}]                # Determine the z coordinate of the chosen atom
variable      randzi equal z[1332]                
#print         "z coord of randatom is = ${randzi}"
# if the chosen atom is not a surface atom then restart the loop
if            "${randzi} < $(v_wthick - 0.7)" then "jump MDPBB.in loop"
set           atom ${randatomi} type 4                    # Set this grafted wall atom as a new type
set           atom 1332 type 4                    
  1 settings made for type
variable      x0 equal x[${randatomi}]                    # Determine its x-coord
variable      x0 equal x[1332]                    
variable      y0 equal y[${randatomi}]                    # Determine its y-coord
variable      y0 equal y[1332]                    
variable      check0 equal ${check}                       # Count the number of atoms in the simulation
variable      check0 equal 1382                       
variable      b equal ${check}+1                          # The grafted bead id will be one higher after being inserted
variable      b equal 1382+1                          
#print         "Grafted Bead ID = $b"
#print         "Random Wall atom = ${randatomi}"
#print         "x = ${x0}"
#print         "y = ${y0}"
variable      flag python A_Check         # Define a flag to check that the atom-id was not previously picked
# If flag = 1 then that means this random atom is already grafted if flag = 0 then atom is free to be grafted
# Define a python function that performs this check and keeps track throughout the loop to ensure no atom is picked twice
python        A_Check input 2 v_randatomi v_M return v_flag format iii file A_Check.py
variable      flag0 equal ${flag}                         # Invoke the python function
variable      flag0 equal 0                         
#print         "flag = ${flag0}"
# If the atom has been picked previously then do not insert and restart the loop
if            "${flag0} == 1" then "jump MDPBB.in loop"
# Otherwise insert the chain directly above the chosen wall atom pointing perpendicular to the wall
create_atoms  1 single ${x0} ${y0} ${z0} mol bs 24987 units box remap yes rotate 0 0 0 1
create_atoms  1 single 11.1118073637774 ${y0} ${z0} mol bs 24987 units box remap yes rotate 0 0 0 1
create_atoms  1 single 11.1118073637774 19.8425131496025 ${z0} mol bs 24987 units box remap yes rotate 0 0 0 1
create_atoms  1 single 11.1118073637774 19.8425131496025 17 mol bs 24987 units box remap yes rotate 0 0 0 1
Created 30 atoms
  create_atoms CPU = 4.03e-05 secs
variable      check1 equal ${check}               # Count the new total number of atoms
variable      check1 equal 1412               
# Check that the molecule has indeed been inserted (This check is no longer an issue).
if            "${check1} != ${check0}" then "create_bonds  single/bond 2 ${randatomi} $b" "next i"
create_bonds  single/bond 2 ${randatomi} $b
create_bonds  single/bond 2 1332 $b
create_bonds  single/bond 2 1332 1383
  2 = max # of 1-2 neighbors
  5 = max # of special neighbors
  special bonds CPU = 0.0019689 secs
next i
jump MDPBB.in loop    # End of the loop
variable      randni equal round(random(1,${ntwall},$s))  # Pick a random "top" wall atom
variable      randni equal round(random(1,1352,$s))  
variable      randni equal round(random(1,1352,234897))  
#print         "seed is = $s"
#print         "i = $(v_i)"
variable      randatomi equal ${randni}                   # This is to obtain an integer number for atom-id
variable      randatomi equal 643                   
variable      randzi equal z[${randatomi}]                # Determine the z coordinate of the chosen atom
variable      randzi equal z[643]                
#print         "z coord of randatom is = ${randzi}"
# if the chosen atom is not a surface atom then restart the loop
if            "${randzi} < $(v_wthick - 0.7)" then "jump MDPBB.in loop"
jump MDPBB.in loop
variable      randni equal round(random(1,${ntwall},$s))  # Pick a random "top" wall atom
variable      randni equal round(random(1,1352,$s))  
variable      randni equal round(random(1,1352,234897))  
#print         "seed is = $s"
#print         "i = $(v_i)"
variable      randatomi equal ${randni}                   # This is to obtain an integer number for atom-id
variable      randatomi equal 454                   
variable      randzi equal z[${randatomi}]                # Determine the z coordinate of the chosen atom
variable      randzi equal z[454]                
#print         "z coord of randatom is = ${randzi}"
# if the chosen atom is not a surface atom then restart the loop
if            "${randzi} < $(v_wthick - 0.7)" then "jump MDPBB.in loop"
jump MDPBB.in loop
variable      randni equal round(random(1,${ntwall},$s))  # Pick a random "top" wall atom
variable      randni equal round(random(1,1352,$s))  
variable      randni equal round(random(1,1352,234897))  
#print         "seed is = $s"
#print         "i = $(v_i)"
variable      randatomi equal ${randni}                   # This is to obtain an integer number for atom-id
variable      randatomi equal 585                   
variable      randzi equal z[${randatomi}]                # Determine the z coordinate of the chosen atom
variable      randzi equal z[585]                
#print         "z coord of randatom is = ${randzi}"
# if the chosen atom is not a surface atom then restart the loop
if            "${randzi} < $(v_wthick - 0.7)" then "jump MDPBB.in loop"
jump MDPBB.in loop
variable      randni equal round(random(1,${ntwall},$s))  # Pick a random "top" wall atom
variable      randni equal round(random(1,1352,$s))  
variable      randni equal round(random(1,1352,234897))  
#print         "seed is = $s"
#print         "i = $(v_i)"
variable      randatomi equal ${randni}                   # This is to obtain an integer number for atom-id
variable      randatomi equal 979                   
variable      randzi equal z[${randatomi}]                # Determine the z coordinate of the chosen atom
variable      randzi equal z[979]                
#print         "z coord of randatom is = ${randzi}"
# if the chosen atom is not a surface atom then restart the loop
if            "${randzi} < $(v_wthick - 0.7)" then "jump MDPBB.in loop"
set           atom ${randatomi} type 4                    # Set this grafted wall atom as a new type
set           atom 979 type 4                    
  1 settings made for type
variable      x0 equal x[${randatomi}]                    # Determine its x-coord
variable      x0 equal x[979]                    
variable      y0 equal y[${randatomi}]                    # Determine its y-coord
variable      y0 equal y[979]                    
variable      check0 equal ${check}                       # Count the number of atoms in the simulation
variable      check0 equal 1412                       
variable      b equal ${check}+1                          # The grafted bead id will be one higher after being inserted
variable      b equal 1412+1                          
#print         "Grafted Bead ID = $b"
#print         "Random Wall atom = ${randatomi}"
#print         "x = ${x0}"
#print         "y = ${y0}"
variable      flag python A_Check         # Define a flag to check that the atom-id was not previously picked
# If flag = 1 then that means this random atom is already grafted if flag = 0 then atom is free to be grafted
# Define a python function that performs this check and keeps track throughout the loop to ensure no atom is picked twice
python        A_Check input 2 v_randatomi v_M return v_flag format iii file A_Check.py
variable      flag0 equal ${flag}                         # Invoke the python function
variable      flag0 equal 0                         
#print         "flag = ${flag0}"
# If the atom has been picked previously then do not insert and restart the loop
if            "${flag0} == 1" then "jump MDPBB.in loop"
# Otherwise insert the chain directly above the chosen wall atom pointing perpendicular to the wall
create_atoms  1 single ${x0} ${y0} ${z0} mol bs 24987 units box remap yes rotate 0 0 0 1
create_atoms  1 single 16.6677110456661 ${y0} ${z0} mol bs 24987 units box remap yes rotate 0 0 0 1
create_atoms  1 single 16.6677110456661 7.937005259841 ${z0} mol bs 24987 units box remap yes rotate 0 0 0 1
create_atoms  1 single 16.6677110456661 7.937005259841 17 mol bs 24987 units box remap yes rotate 0 0 0 1
Created 30 atoms
  create_atoms CPU = 5.24e-05 secs
variable      check1 equal ${check}               # Count the new total number of atoms
variable      check1 equal 1442               
# Check that the molecule has indeed been inserted (This check is no longer an issue).
if            "${check1} != ${check0}" then "create_bonds  single/bond 2 ${randatomi} $b" "next i"
create_bonds  single/bond 2 ${randatomi} $b
create_bonds  single/bond 2 979 $b
create_bonds  single/bond 2 979 1413
  2 = max # of 1-2 neighbors
  5 = max # of special neighbors
  special bonds CPU = 0.0019328 secs
next i
jump MDPBB.in loop    # End of the loop
variable      randni equal round(random(1,${ntwall},$s))  # Pick a random "top" wall atom
variable      randni equal round(random(1,1352,$s))  
variable      randni equal round(random(1,1352,234897))  
#print         "seed is = $s"
#print         "i = $(v_i)"
variable      randatomi equal ${randni}                   # This is to obtain an integer number for atom-id
variable      randatomi equal 1211                   
variable      randzi equal z[${randatomi}]                # Determine the z coordinate of the chosen atom
variable      randzi equal z[1211]                
#print         "z coord of randatom is = ${randzi}"
# if the chosen atom is not a surface atom then restart the loop
if            "${randzi} < $(v_wthick - 0.7)" then "jump MDPBB.in loop"
set           atom ${randatomi} type 4                    # Set this grafted wall atom as a new type
set           atom 1211 type 4                    
  1 settings made for type
variable      x0 equal x[${randatomi}]                    # Determine its x-coord
variable      x0 equal x[1211]                    
variable      y0 equal y[${randatomi}]                    # Determine its y-coord
variable      y0 equal y[1211]                    
variable      check0 equal ${check}                       # Count the number of atoms in the simulation
variable      check0 equal 1442                       
variable      b equal ${check}+1                          # The grafted bead id will be one higher after being inserted
variable      b equal 1442+1                          
#print         "Grafted Bead ID = $b"
#print         "Random Wall atom = ${randatomi}"
#print         "x = ${x0}"
#print         "y = ${y0}"
variable      flag python A_Check         # Define a flag to check that the atom-id was not previously picked
# If flag = 1 then that means this random atom is already grafted if flag = 0 then atom is free to be grafted
# Define a python function that performs this check and keeps track throughout the loop to ensure no atom is picked twice
python        A_Check input 2 v_randatomi v_M return v_flag format iii file A_Check.py
variable      flag0 equal ${flag}                         # Invoke the python function
variable      flag0 equal 0                         
#print         "flag = ${flag0}"
# If the atom has been picked previously then do not insert and restart the loop
if            "${flag0} == 1" then "jump MDPBB.in loop"
# Otherwise insert the chain directly above the chosen wall atom pointing perpendicular to the wall
create_atoms  1 single ${x0} ${y0} ${z0} mol bs 24987 units box remap yes rotate 0 0 0 1
create_atoms  1 single 5.5559036818887 ${y0} ${z0} mol bs 24987 units box remap yes rotate 0 0 0 1
create_atoms  1 single 5.5559036818887 15.874010519682 ${z0} mol bs 24987 units box remap yes rotate 0 0 0 1
create_atoms  1 single 5.5559036818887 15.874010519682 17 mol bs 24987 units box remap yes rotate 0 0 0 1
Created 30 atoms
  create_atoms CPU = 6.33e-05 secs
variable      check1 equal ${check}               # Count the new total number of atoms
variable      check1 equal 1472               
# Check that the molecule has indeed been inserted (This check is no longer an issue).
if            "${check1} != ${check0}" then "create_bonds  single/bond 2 ${randatomi} $b" "next i"
create_bonds  single/bond 2 ${randatomi} $b
create_bonds  single/bond 2 1211 $b
create_bonds  single/bond 2 1211 1443
  2 = max # of 1-2 neighbors
  5 = max # of special neighbors
  special bonds CPU = 0.0019942 secs
next i
jump MDPBB.in loop    # End of the loop
variable      randni equal round(random(1,${ntwall},$s))  # Pick a random "top" wall atom
variable      randni equal round(random(1,1352,$s))  
variable      randni equal round(random(1,1352,234897))  
#print         "seed is = $s"
#print         "i = $(v_i)"
variable      randatomi equal ${randni}                   # This is to obtain an integer number for atom-id
variable      randatomi equal 11                   
variable      randzi equal z[${randatomi}]                # Determine the z coordinate of the chosen atom
variable      randzi equal z[11]                
#print         "z coord of randatom is = ${randzi}"
# if the chosen atom is not a surface atom then restart the loop
if            "${randzi} < $(v_wthick - 0.7)" then "jump MDPBB.in loop"
jump MDPBB.in loop
variable      randni equal round(random(1,${ntwall},$s))  # Pick a random "top" wall atom
variable      randni equal round(random(1,1352,$s))  
variable      randni equal round(random(1,1352,234897))  
#print         "seed is = $s"
#print         "i = $(v_i)"
variable      randatomi equal ${randni}                   # This is to obtain an integer number for atom-id
variable      randatomi equal 258                   
variable      randzi equal z[${randatomi}]                # Determine the z coordinate of the chosen atom
variable      randzi equal z[258]                
#print         "z coord of randatom is = ${randzi}"
# if the chosen atom is not a surface atom then restart the loop
if            "${randzi} < $(v_wthick - 0.7)" then "jump MDPBB.in loop"
jump MDPBB.in loop
variable      randni equal round(random(1,${ntwall},$s))  # Pick a random "top" wall atom
variable      randni equal round(random(1,1352,$s))  
variable      randni equal round(random(1,1352,234897))  
#print         "seed is = $s"
#print         "i = $(v_i)"
variable      randatomi equal ${randni}                   # This is to obtain an integer number for atom-id
variable      randatomi equal 442                   
variable      randzi equal z[${randatomi}]                # Determine the z coordinate of the chosen atom
variable      randzi equal z[442]                
#print         "z coord of randatom is = ${randzi}"
# if the chosen atom is not a surface atom then restart the loop
if            "${randzi} < $(v_wthick - 0.7)" then "jump MDPBB.in loop"
jump MDPBB.in loop
variable      randni equal round(random(1,${ntwall},$s))  # Pick a random "top" wall atom
variable      randni equal round(random(1,1352,$s))  
variable      randni equal round(random(1,1352,234897))  
#print         "seed is = $s"
#print         "i = $(v_i)"
variable      randatomi equal ${randni}                   # This is to obtain an integer number for atom-id
variable      randatomi equal 1095                   
variable      randzi equal z[${randatomi}]                # Determine the z coordinate of the chosen atom
variable      randzi equal z[1095]                
#print         "z coord of randatom is = ${randzi}"
# if the chosen atom is not a surface atom then restart the loop
if            "${randzi} < $(v_wthick - 0.7)" then "jump MDPBB.in loop"
set           atom ${randatomi} type 4                    # Set this grafted wall atom as a new type
set           atom 1095 type 4                    
  1 settings made for type
variable      x0 equal x[${randatomi}]                    # Determine its x-coord
variable      x0 equal x[1095]                    
variable      y0 equal y[${randatomi}]                    # Determine its y-coord
variable      y0 equal y[1095]                    
variable      check0 equal ${check}                       # Count the number of atoms in the simulation
variable      check0 equal 1472                       
variable      b equal ${check}+1                          # The grafted bead id will be one higher after being inserted
variable      b equal 1472+1                          
#print         "Grafted Bead ID = $b"
#print         "Random Wall atom = ${randatomi}"
#print         "x = ${x0}"
#print         "y = ${y0}"
variable      flag python A_Check         # Define a flag to check that the atom-id was not previously picked
# If flag = 1 then that means this random atom is already grafted if flag = 0 then atom is free to be grafted
# Define a python function that performs this check and keeps track throughout the loop to ensure no atom is picked twice
python        A_Check input 2 v_randatomi v_M return v_flag format iii file A_Check.py
variable      flag0 equal ${flag}                         # Invoke the python function
variable      flag0 equal 0                         
#print         "flag = ${flag0}"
# If the atom has been picked previously then do not insert and restart the loop
if            "${flag0} == 1" then "jump MDPBB.in loop"
# Otherwise insert the chain directly above the chosen wall atom pointing perpendicular to the wall
create_atoms  1 single ${x0} ${y0} ${z0} mol bs 24987 units box remap yes rotate 0 0 0 1
create_atoms  1 single 0.7937005259841 ${y0} ${z0} mol bs 24987 units box remap yes rotate 0 0 0 1
create_atoms  1 single 0.7937005259841 12.6992084157456 ${z0} mol bs 24987 units box remap yes rotate 0 0 0 1
create_atoms  1 single 0.7937005259841 12.6992084157456 17 mol bs 24987 units box remap yes rotate 0 0 0 1
Created 30 atoms
  create_atoms CPU = 4.54e-05 secs
variable      check1 equal ${check}               # Count the new total number of atoms
variable      check1 equal 1502               
# Check that the molecule has indeed been inserted (This check is no longer an issue).
if            "${check1} != ${check0}" then "create_bonds  single/bond 2 ${randatomi} $b" "next i"
create_bonds  single/bond 2 ${randatomi} $b
create_bonds  single/bond 2 1095 $b
create_bonds  single/bond 2 1095 1473
  2 = max # of 1-2 neighbors
  5 = max # of special neighbors
  special bonds CPU = 0.0016637 secs
next i
jump MDPBB.in loop    # End of the loop
variable      randni equal round(random(1,${ntwall},$s))  # Pick a random "top" wall atom
variable      randni equal round(random(1,1352,$s))  
variable      randni equal round(random(1,1352,234897))  
#print         "seed is = $s"
#print         "i = $(v_i)"
variable      randatomi equal ${randni}                   # This is to obtain an integer number for atom-id
variable      randatomi equal 960                   
variable      randzi equal z[${randatomi}]                # Determine the z coordinate of the chosen atom
variable      randzi equal z[960]                
#print         "z coord of randatom is = ${randzi}"
# if the chosen atom is not a surface atom then restart the loop
if            "${randzi} < $(v_wthick - 0.7)" then "jump MDPBB.in loop"
set           atom ${randatomi} type 4                    # Set this grafted wall atom as a new type
set           atom 960 type 4                    
  1 settings made for type
variable      x0 equal x[${randatomi}]                    # Determine its x-coord
variable      x0 equal x[960]                    
variable      y0 equal y[${randatomi}]                    # Determine its y-coord
variable      y0 equal y[960]                    
variable      check0 equal ${check}                       # Count the number of atoms in the simulation
variable      check0 equal 1502                       
variable      b equal ${check}+1                          # The grafted bead id will be one higher after being inserted
variable      b equal 1502+1                          
#print         "Grafted Bead ID = $b"
#print         "Random Wall atom = ${randatomi}"
#print         "x = ${x0}"
#print         "y = ${y0}"
variable      flag python A_Check         # Define a flag to check that the atom-id was not previously picked
# If flag = 1 then that means this random atom is already grafted if flag = 0 then atom is free to be grafted
# Define a python function that performs this check and keeps track throughout the loop to ensure no atom is picked twice
python        A_Check input 2 v_randatomi v_M return v_flag format iii file A_Check.py
variable      flag0 equal ${flag}                         # Invoke the python function
variable      flag0 equal 0                         
#print         "flag = ${flag0}"
# If the atom has been picked previously then do not insert and restart the loop
if            "${flag0} == 1" then "jump MDPBB.in loop"
# Otherwise insert the chain directly above the chosen wall atom pointing perpendicular to the wall
create_atoms  1 single ${x0} ${y0} ${z0} mol bs 24987 units box remap yes rotate 0 0 0 1
create_atoms  1 single 7.937005259841 ${y0} ${z0} mol bs 24987 units box remap yes rotate 0 0 0 1
create_atoms  1 single 7.937005259841 8.7307057858251 ${z0} mol bs 24987 units box remap yes rotate 0 0 0 1
create_atoms  1 single 7.937005259841 8.7307057858251 17 mol bs 24987 units box remap yes rotate 0 0 0 1
Created 30 atoms
  create_atoms CPU = 6.68e-05 secs
variable      check1 equal ${check}               # Count the new total number of atoms
variable      check1 equal 1532               
# Check that the molecule has indeed been inserted (This check is no longer an issue).
if            "${check1} != ${check0}" then "create_bonds  single/bond 2 ${randatomi} $b" "next i"
create_bonds  single/bond 2 ${randatomi} $b
create_bonds  single/bond 2 960 $b
create_bonds  single/bond 2 960 1503
  2 = max # of 1-2 neighbors
  5 = max # of special neighbors
  special bonds CPU = 0.0020925 secs
next i
jump MDPBB.in loop    # End of the loop
variable      randni equal round(random(1,${ntwall},$s))  # Pick a random "top" wall atom
variable      randni equal round(random(1,1352,$s))  
variable      randni equal round(random(1,1352,234897))  
#print         "seed is = $s"
#print         "i = $(v_i)"
variable      randatomi equal ${randni}                   # This is to obtain an integer number for atom-id
variable      randatomi equal 931                   
variable      randzi equal z[${randatomi}]                # Determine the z coordinate of the chosen atom
variable      randzi equal z[931]                
#print         "z coord of randatom is = ${randzi}"
# if the chosen atom is not a surface atom then restart the loop
if            "${randzi} < $(v_wthick - 0.7)" then "jump MDPBB.in loop"
set           atom ${randatomi} type 4                    # Set this grafted wall atom as a new type
set           atom 931 type 4                    
  1 settings made for type
variable      x0 equal x[${randatomi}]                    # Determine its x-coord
variable      x0 equal x[931]                    
variable      y0 equal y[${randatomi}]                    # Determine its y-coord
variable      y0 equal y[931]                    
variable      check0 equal ${check}                       # Count the number of atoms in the simulation
variable      check0 equal 1532                       
variable      b equal ${check}+1                          # The grafted bead id will be one higher after being inserted
variable      b equal 1532+1                          
#print         "Grafted Bead ID = $b"
#print         "Random Wall atom = ${randatomi}"
#print         "x = ${x0}"
#print         "y = ${y0}"
variable      flag python A_Check         # Define a flag to check that the atom-id was not previously picked
# If flag = 1 then that means this random atom is already grafted if flag = 0 then atom is free to be grafted
# Define a python function that performs this check and keeps track throughout the loop to ensure no atom is picked twice
python        A_Check input 2 v_randatomi v_M return v_flag format iii file A_Check.py
variable      flag0 equal ${flag}                         # Invoke the python function
variable      flag0 equal 0                         
#print         "flag = ${flag0}"
# If the atom has been picked previously then do not insert and restart the loop
if            "${flag0} == 1" then "jump MDPBB.in loop"
# Otherwise insert the chain directly above the chosen wall atom pointing perpendicular to the wall
create_atoms  1 single ${x0} ${y0} ${z0} mol bs 24987 units box remap yes rotate 0 0 0 1
create_atoms  1 single 18.2551120976343 ${y0} ${z0} mol bs 24987 units box remap yes rotate 0 0 0 1
create_atoms  1 single 18.2551120976343 6.3496042078728 ${z0} mol bs 24987 units box remap yes rotate 0 0 0 1
create_atoms  1 single 18.2551120976343 6.3496042078728 17 mol bs 24987 units box remap yes rotate 0 0 0 1
Created 30 atoms
  create_atoms CPU = 6.92e-05 secs
variable      check1 equal ${check}               # Count the new total number of atoms
variable      check1 equal 1562               
# Check that the molecule has indeed been inserted (This check is no longer an issue).
if            "${check1} != ${check0}" then "create_bonds  single/bond 2 ${randatomi} $b" "next i"
create_bonds  single/bond 2 ${randatomi} $b
create_bonds  single/bond 2 931 $b
create_bonds  single/bond 2 931 1533
  2 = max # of 1-2 neighbors
  5 = max # of special neighbors
  special bonds CPU = 0.0021467 secs
next i
jump MDPBB.in loop    # End of the loop
variable      randni equal round(random(1,${ntwall},$s))  # Pick a random "top" wall atom
variable      randni equal round(random(1,1352,$s))  
variable      randni equal round(random(1,1352,234897))  
#print         "seed is = $s"
#print         "i = $(v_i)"
variable      randatomi equal ${randni}                   # This is to obtain an integer number for atom-id
variable      randatomi equal 755                   
variable      randzi equal z[${randatomi}]                # Determine the z coordinate of the chosen atom
variable      randzi equal z[755]                
#print         "z coord of randatom is = ${randzi}"
# if the chosen atom is not a surface atom then restart the loop
if            "${randzi} < $(v_wthick - 0.7)" then "jump MDPBB.in loop"
set           atom ${randatomi} type 4                    # Set this grafted wall atom as a new type
set           atom 755 type 4                    
  1 settings made for type
variable      x0 equal x[${randatomi}]                    # Determine its x-coord
variable      x0 equal x[755]                    
variable      y0 equal y[${randatomi}]                    # Determine its y-coord
variable      y0 equal y[755]                    
variable      check0 equal ${check}                       # Count the number of atoms in the simulation
variable      check0 equal 1562                       
variable      b equal ${check}+1                          # The grafted bead id will be one higher after being inserted
variable      b equal 1562+1                          
#print         "Grafted Bead ID = $b"
#print         "Random Wall atom = ${randatomi}"
#print         "x = ${x0}"
#print         "y = ${y0}"
variable      flag python A_Check         # Define a flag to check that the atom-id was not previously picked
# If flag = 1 then that means this random atom is already grafted if flag = 0 then atom is free to be grafted
# Define a python function that performs this check and keeps track throughout the loop to ensure no atom is picked twice
python        A_Check input 2 v_randatomi v_M return v_flag format iii file A_Check.py
variable      flag0 equal ${flag}                         # Invoke the python function
variable      flag0 equal 0                         
#print         "flag = ${flag0}"
# If the atom has been picked previously then do not insert and restart the loop
if            "${flag0} == 1" then "jump MDPBB.in loop"
# Otherwise insert the chain directly above the chosen wall atom pointing perpendicular to the wall
create_atoms  1 single ${x0} ${y0} ${z0} mol bs 24987 units box remap yes rotate 0 0 0 1
create_atoms  1 single 10.3181068377933 ${y0} ${z0} mol bs 24987 units box remap yes rotate 0 0 0 1
create_atoms  1 single 10.3181068377933 1.5874010519682 ${z0} mol bs 24987 units box remap yes rotate 0 0 0 1
create_atoms  1 single 10.3181068377933 1.5874010519682 17 mol bs 24987 units box remap yes rotate 0 0 0 1
Created 30 atoms
  create_atoms CPU = 4.25e-05 secs
variable      check1 equal ${check}               # Count the new total number of atoms
variable      check1 equal 1592               
# Check that the molecule has indeed been inserted (This check is no longer an issue).
if            "${check1} != ${check0}" then "create_bonds  single/bond 2 ${randatomi} $b" "next i"
create_bonds  single/bond 2 ${randatomi} $b
create_bonds  single/bond 2 755 $b
create_bonds  single/bond 2 755 1563
  2 = max # of 1-2 neighbors
  5 = max # of special neighbors
  special bonds CPU = 0.0017975 secs
next i
jump MDPBB.in loop    # End of the loop
variable      randni equal round(random(1,${ntwall},$s))  # Pick a random "top" wall atom
variable      randni equal round(random(1,1352,$s))  
variable      randni equal round(random(1,1352,234897))  
#print         "seed is = $s"
#print         "i = $(v_i)"
variable      randatomi equal ${randni}                   # This is to obtain an integer number for atom-id
variable      randatomi equal 1053                   
variable      randzi equal z[${randatomi}]                # Determine the z coordinate of the chosen atom
variable      randzi equal z[1053]                
#print         "z coord of randatom is = ${randzi}"
# if the chosen atom is not a surface atom then restart the loop
if            "${randzi} < $(v_wthick - 0.7)" then "jump MDPBB.in loop"
jump MDPBB.in loop
variable      randni equal round(random(1,${ntwall},$s))  # Pick a random "top" wall atom
variable      randni equal round(random(1,1352,$s))  
variable      randni equal round(random(1,1352,234897))  
#print         "seed is = $s"
#print         "i = $(v_i)"
variable      randatomi equal ${randni}                   # This is to obtain an integer number for atom-id
variable      randatomi equal 832                   
variable      randzi equal z[${randatomi}]                # Determine the z coordinate of the chosen atom
variable      randzi equal z[832]                
#print         "z coord of randatom is = ${randzi}"
# if the chosen atom is not a surface atom then restart the loop
if            "${randzi} < $(v_wthick - 0.7)" then "jump MDPBB.in loop"
set           atom ${randatomi} type 4                    # Set this grafted wall atom as a new type
set           atom 832 type 4                    
  1 settings made for type
variable      x0 equal x[${randatomi}]                    # Determine its x-coord
variable      x0 equal x[832]                    
variable      y0 equal y[${randatomi}]                    # Determine its y-coord
variable      y0 equal y[832]                    
variable      check0 equal ${check}                       # Count the number of atoms in the simulation
variable      check0 equal 1592                       
variable      b equal ${check}+1                          # The grafted bead id will be one higher after being inserted
variable      b equal 1592+1                          
#print         "Grafted Bead ID = $b"
#print         "Random Wall atom = ${randatomi}"
#print         "x = ${x0}"
#print         "y = ${y0}"
variable      flag python A_Check         # Define a flag to check that the atom-id was not previously picked
# If flag = 1 then that means this random atom is already grafted if flag = 0 then atom is free to be grafted
# Define a python function that performs this check and keeps track throughout the loop to ensure no atom is picked twice
python        A_Check input 2 v_randatomi v_M return v_flag format iii file A_Check.py
variable      flag0 equal ${flag}                         # Invoke the python function
variable      flag0 equal 0                         
#print         "flag = ${flag0}"
# If the atom has been picked previously then do not insert and restart the loop
if            "${flag0} == 1" then "jump MDPBB.in loop"
# Otherwise insert the chain directly above the chosen wall atom pointing perpendicular to the wall
create_atoms  1 single ${x0} ${y0} ${z0} mol bs 24987 units box remap yes rotate 0 0 0 1
create_atoms  1 single 19.0488126236184 ${y0} ${z0} mol bs 24987 units box remap yes rotate 0 0 0 1
create_atoms  1 single 19.0488126236184 3.9685026299205 ${z0} mol bs 24987 units box remap yes rotate 0 0 0 1
create_atoms  1 single 19.0488126236184 3.9685026299205 17 mol bs 24987 units box remap yes rotate 0 0 0 1
Created 30 atoms
  create_atoms CPU = 6.98e-05 secs
variable      check1 equal ${check}               # Count the new total number of atoms
variable      check1 equal 1622               
# Check that the molecule has indeed been inserted (This check is no longer an issue).
if            "${check1} != ${check0}" then "create_bonds  single/bond 2 ${randatomi} $b" "next i"
create_bonds  single/bond 2 ${randatomi} $b
create_bonds  single/bond 2 832 $b
create_bonds  single/bond 2 832 1593
  2 = max # of 1-2 neighbors
  5 = max # of special neighbors
  special bonds CPU = 0.0019117 secs
next i
jump MDPBB.in loop    # End of the loop
variable      randni equal round(random(1,${ntwall},$s))  # Pick a random "top" wall atom
variable      randni equal round(random(1,1352,$s))  
variable      randni equal round(random(1,1352,234897))  
#print         "seed is = $s"
#print         "i = $(v_i)"
variable      randatomi equal ${randni}                   # This is to obtain an integer number for atom-id
variable      randatomi equal 838                   
variable      randzi equal z[${randatomi}]                # Determine the z coordinate of the chosen atom
variable      randzi equal z[838]                
#print         "z coord of randatom is = ${randzi}"
# if the chosen atom is not a surface atom then restart the loop
if            "${randzi} < $(v_wthick - 0.7)" then "jump MDPBB.in loop"
jump MDPBB.in loop
variable      randni equal round(random(1,${ntwall},$s))  # Pick a random "top" wall atom
variable      randni equal round(random(1,1352,$s))  
variable      randni equal round(random(1,1352,234897))  
#print         "seed is = $s"
#print         "i = $(v_i)"
variable      randatomi equal ${randni}                   # This is to obtain an integer number for atom-id
variable      randatomi equal 163                   
variable      randzi equal z[${randatomi}]                # Determine the z coordinate of the chosen atom
variable      randzi equal z[163]                
#print         "z coord of randatom is = ${randzi}"
# if the chosen atom is not a surface atom then restart the loop
if            "${randzi} < $(v_wthick - 0.7)" then "jump MDPBB.in loop"
jump MDPBB.in loop
variable      randni equal round(random(1,${ntwall},$s))  # Pick a random "top" wall atom
variable      randni equal round(random(1,1352,$s))  
variable      randni equal round(random(1,1352,234897))  
#print         "seed is = $s"
#print         "i = $(v_i)"
variable      randatomi equal ${randni}                   # This is to obtain an integer number for atom-id
variable      randatomi equal 1178                   
variable      randzi equal z[${randatomi}]                # Determine the z coordinate of the chosen atom
variable      randzi equal z[1178]                
#print         "z coord of randatom is = ${randzi}"
# if the chosen atom is not a surface atom then restart the loop
if            "${randzi} < $(v_wthick - 0.7)" then "jump MDPBB.in loop"
jump MDPBB.in loop
variable      randni equal round(random(1,${ntwall},$s))  # Pick a random "top" wall atom
variable      randni equal round(random(1,1352,$s))  
variable      randni equal round(random(1,1352,234897))  
#print         "seed is = $s"
#print         "i = $(v_i)"
variable      randatomi equal ${randni}                   # This is to obtain an integer number for atom-id
variable      randatomi equal 814                   
variable      randzi equal z[${randatomi}]                # Determine the z coordinate of the chosen atom
variable      randzi equal z[814]                
#print         "z coord of randatom is = ${randzi}"
# if the chosen atom is not a surface atom then restart the loop
if            "${randzi} < $(v_wthick - 0.7)" then "jump MDPBB.in loop"
jump MDPBB.in loop
variable      randni equal round(random(1,${ntwall},$s))  # Pick a random "top" wall atom
variable      randni equal round(random(1,1352,$s))  
variable      randni equal round(random(1,1352,234897))  
#print         "seed is = $s"
#print         "i = $(v_i)"
variable      randatomi equal ${randni}                   # This is to obtain an integer number for atom-id
variable      randatomi equal 1242                   
variable      randzi equal z[${randatomi}]                # Determine the z coordinate of the chosen atom
variable      randzi equal z[1242]                
#print         "z coord of randatom is = ${randzi}"
# if the chosen atom is not a surface atom then restart the loop
if            "${randzi} < $(v_wthick - 0.7)" then "jump MDPBB.in loop"
jump MDPBB.in loop
variable      randni equal round(random(1,${ntwall},$s))  # Pick a random "top" wall atom
variable      randni equal round(random(1,1352,$s))  
variable      randni equal round(random(1,1352,234897))  
#print         "seed is = $s"
#print         "i = $(v_i)"
variable      randatomi equal ${randni}                   # This is to obtain an integer number for atom-id
variable      randatomi equal 942                   
variable      randzi equal z[${randatomi}]                # Determine the z coordinate of the chosen atom
variable      randzi equal z[942]                
#print         "z coord of randatom is = ${randzi}"
# if the chosen atom is not a surface atom then restart the loop
if            "${randzi} < $(v_wthick - 0.7)" then "jump MDPBB.in loop"
jump MDPBB.in loop
variable      randni equal round(random(1,${ntwall},$s))  # Pick a random "top" wall atom
variable      randni equal round(random(1,1352,$s))  
variable      randni equal round(random(1,1352,234897))  
#print         "seed is = $s"
#print         "i = $(v_i)"
variable      randatomi equal ${randni}                   # This is to obtain an integer number for atom-id
variable      randatomi equal 1214                   
variable      randzi equal z[${randatomi}]                # Determine the z coordinate of the chosen atom
variable      randzi equal z[1214]                
#print         "z coord of randatom is = ${randzi}"
# if the chosen atom is not a surface atom then restart the loop
if            "${randzi} < $(v_wthick - 0.7)" then "jump MDPBB.in loop"
jump MDPBB.in loop
variable      randni equal round(random(1,${ntwall},$s))  # Pick a random "top" wall atom
variable      randni equal round(random(1,1352,$s))  
variable      randni equal round(random(1,1352,234897))  
#print         "seed is = $s"
#print         "i = $(v_i)"
variable      randatomi equal ${randni}                   # This is to obtain an integer number for atom-id
variable      randatomi equal 796                   
variable      randzi equal z[${randatomi}]                # Determine the z coordinate of the chosen atom
variable      randzi equal z[796]                
#print         "z coord of randatom is = ${randzi}"
# if the chosen atom is not a surface atom then restart the loop
if            "${randzi} < $(v_wthick - 0.7)" then "jump MDPBB.in loop"
set           atom ${randatomi} type 4                    # Set this grafted wall atom as a new type
set           atom 796 type 4                    
  1 settings made for type
variable      x0 equal x[${randatomi}]                    # Determine its x-coord
variable      x0 equal x[796]                    
variable      y0 equal y[${randatomi}]                    # Determine its y-coord
variable      y0 equal y[796]                    
variable      check0 equal ${check}                       # Count the number of atoms in the simulation
variable      check0 equal 1622                       
variable      b equal ${check}+1                          # The grafted bead id will be one higher after being inserted
variable      b equal 1622+1                          
#print         "Grafted Bead ID = $b"
#print         "Random Wall atom = ${randatomi}"
#print         "x = ${x0}"
#print         "y = ${y0}"
variable      flag python A_Check         # Define a flag to check that the atom-id was not previously picked
# If flag = 1 then that means this random atom is already grafted if flag = 0 then atom is free to be grafted
# Define a python function that performs this check and keeps track throughout the loop to ensure no atom is picked twice
python        A_Check input 2 v_randatomi v_M return v_flag format iii file A_Check.py
variable      flag0 equal ${flag}                         # Invoke the python function
variable      flag0 equal 0                         
#print         "flag = ${flag0}"
# If the atom has been picked previously then do not insert and restart the loop
if            "${flag0} == 1" then "jump MDPBB.in loop"
# Otherwise insert the chain directly above the chosen wall atom pointing perpendicular to the wall
create_atoms  1 single ${x0} ${y0} ${z0} mol bs 24987 units box remap yes rotate 0 0 0 1
create_atoms  1 single 4.7622031559046 ${y0} ${z0} mol bs 24987 units box remap yes rotate 0 0 0 1
create_atoms  1 single 4.7622031559046 3.9685026299205 ${z0} mol bs 24987 units box remap yes rotate 0 0 0 1
create_atoms  1 single 4.7622031559046 3.9685026299205 17 mol bs 24987 units box remap yes rotate 0 0 0 1
Created 30 atoms
  create_atoms CPU = 6.82e-05 secs
variable      check1 equal ${check}               # Count the new total number of atoms
variable      check1 equal 1652               
# Check that the molecule has indeed been inserted (This check is no longer an issue).
if            "${check1} != ${check0}" then "create_bonds  single/bond 2 ${randatomi} $b" "next i"
create_bonds  single/bond 2 ${randatomi} $b
create_bonds  single/bond 2 796 $b
create_bonds  single/bond 2 796 1623
  2 = max # of 1-2 neighbors
  5 = max # of special neighbors
  special bonds CPU = 0.005027 secs
next i
jump MDPBB.in loop    # End of the loop
variable      randni equal round(random(1,${ntwall},$s))  # Pick a random "top" wall atom
variable      randni equal round(random(1,1352,$s))  
variable      randni equal round(random(1,1352,234897))  
#print         "seed is = $s"
#print         "i = $(v_i)"
variable      randatomi equal ${randni}                   # This is to obtain an integer number for atom-id
variable      randatomi equal 1150                   
variable      randzi equal z[${randatomi}]                # Determine the z coordinate of the chosen atom
variable      randzi equal z[1150]                
#print         "z coord of randatom is = ${randzi}"
# if the chosen atom is not a surface atom then restart the loop
if            "${randzi} < $(v_wthick - 0.7)" then "jump MDPBB.in loop"
jump MDPBB.in loop
variable      randni equal round(random(1,${ntwall},$s))  # Pick a random "top" wall atom
variable      randni equal round(random(1,1352,$s))  
variable      randni equal round(random(1,1352,234897))  
#print         "seed is = $s"
#print         "i = $(v_i)"
variable      randatomi equal ${randni}                   # This is to obtain an integer number for atom-id
variable      randatomi equal 1133                   
variable      randzi equal z[${randatomi}]                # Determine the z coordinate of the chosen atom
variable      randzi equal z[1133]                
#print         "z coord of randatom is = ${randzi}"
# if the chosen atom is not a surface atom then restart the loop
if            "${randzi} < $(v_wthick - 0.7)" then "jump MDPBB.in loop"
jump MDPBB.in loop
variable      randni equal round(random(1,${ntwall},$s))  # Pick a random "top" wall atom
variable      randni equal round(random(1,1352,$s))  
variable      randni equal round(random(1,1352,234897))  
#print         "seed is = $s"
#print         "i = $(v_i)"
variable      randatomi equal ${randni}                   # This is to obtain an integer number for atom-id
variable      randatomi equal 563                   
variable      randzi equal z[${randatomi}]                # Determine the z coordinate of the chosen atom
variable      randzi equal z[563]                
#print         "z coord of randatom is = ${randzi}"
# if the chosen atom is not a surface atom then restart the loop
if            "${randzi} < $(v_wthick - 0.7)" then "jump MDPBB.in loop"
jump MDPBB.in loop
variable      randni equal round(random(1,${ntwall},$s))  # Pick a random "top" wall atom
variable      randni equal round(random(1,1352,$s))  
variable      randni equal round(random(1,1352,234897))  
#print         "seed is = $s"
#print         "i = $(v_i)"
variable      randatomi equal ${randni}                   # This is to obtain an integer number for atom-id
variable      randatomi equal 1350                   
variable      randzi equal z[${randatomi}]                # Determine the z coordinate of the chosen atom
variable      randzi equal z[1350]                
#print         "z coord of randatom is = ${randzi}"
# if the chosen atom is not a surface atom then restart the loop
if            "${randzi} < $(v_wthick - 0.7)" then "jump MDPBB.in loop"
jump MDPBB.in loop
variable      randni equal round(random(1,${ntwall},$s))  # Pick a random "top" wall atom
variable      randni equal round(random(1,1352,$s))  
variable      randni equal round(random(1,1352,234897))  
#print         "seed is = $s"
#print         "i = $(v_i)"
variable      randatomi equal ${randni}                   # This is to obtain an integer number for atom-id
variable      randatomi equal 1318                   
variable      randzi equal z[${randatomi}]                # Determine the z coordinate of the chosen atom
variable      randzi equal z[1318]                
#print         "z coord of randatom is = ${randzi}"
# if the chosen atom is not a surface atom then restart the loop
if            "${randzi} < $(v_wthick - 0.7)" then "jump MDPBB.in loop"
jump MDPBB.in loop
variable      randni equal round(random(1,${ntwall},$s))  # Pick a random "top" wall atom
variable      randni equal round(random(1,1352,$s))  
variable      randni equal round(random(1,1352,234897))  
#print         "seed is = $s"
#print         "i = $(v_i)"
variable      randatomi equal ${randni}                   # This is to obtain an integer number for atom-id
variable      randatomi equal 979                   
variable      randzi equal z[${randatomi}]                # Determine the z coordinate of the chosen atom
variable      randzi equal z[979]                
#print         "z coord of randatom is = ${randzi}"
# if the chosen atom is not a surface atom then restart the loop
if            "${randzi} < $(v_wthick - 0.7)" then "jump MDPBB.in loop"
set           atom ${randatomi} type 4                    # Set this grafted wall atom as a new type
set           atom 979 type 4                    
  1 settings made for type
variable      x0 equal x[${randatomi}]                    # Determine its x-coord
variable      x0 equal x[979]                    
variable      y0 equal y[${randatomi}]                    # Determine its y-coord
variable      y0 equal y[979]                    
variable      check0 equal ${check}                       # Count the number of atoms in the simulation
variable      check0 equal 1652                       
variable      b equal ${check}+1                          # The grafted bead id will be one higher after being inserted
variable      b equal 1652+1                          
#print         "Grafted Bead ID = $b"
#print         "Random Wall atom = ${randatomi}"
#print         "x = ${x0}"
#print         "y = ${y0}"
variable      flag python A_Check         # Define a flag to check that the atom-id was not previously picked
# If flag = 1 then that means this random atom is already grafted if flag = 0 then atom is free to be grafted
# Define a python function that performs this check and keeps track throughout the loop to ensure no atom is picked twice
python        A_Check input 2 v_randatomi v_M return v_flag format iii file A_Check.py
variable      flag0 equal ${flag}                         # Invoke the python function
variable      flag0 equal 1                         
#print         "flag = ${flag0}"
# If the atom has been picked previously then do not insert and restart the loop
if            "${flag0} == 1" then "jump MDPBB.in loop"
jump MDPBB.in loop
variable      randni equal round(random(1,${ntwall},$s))  # Pick a random "top" wall atom
variable      randni equal round(random(1,1352,$s))  
variable      randni equal round(random(1,1352,234897))  
#print         "seed is = $s"
#print         "i = $(v_i)"
variable      randatomi equal ${randni}                   # This is to obtain an integer number for atom-id
variable      randatomi equal 1270                   
variable      randzi equal z[${randatomi}]                # Determine the z coordinate of the chosen atom
variable      randzi equal z[1270]                
#print         "z coord of randatom is = ${randzi}"
# if the chosen atom is not a surface atom then restart the loop
if            "${randzi} < $(v_wthick - 0.7)" then "jump MDPBB.in loop"
jump MDPBB.in loop
variable      randni equal round(random(1,${ntwall},$s))  # Pick a random "top" wall atom
variable      randni equal round(random(1,1352,$s))  
variable      randni equal round(random(1,1352,234897))  
#print         "seed is = $s"
#print         "i = $(v_i)"
variable      randatomi equal ${randni}                   # This is to obtain an integer number for atom-id
variable      randatomi equal 320                   
variable      randzi equal z[${randatomi}]                # Determine the z coordinate of the chosen atom
variable      randzi equal z[320]                
#print         "z coord of randatom is = ${randzi}"
# if the chosen atom is not a surface atom then restart the loop
if            "${randzi} < $(v_wthick - 0.7)" then "jump MDPBB.in loop"
jump MDPBB.in loop
variable      randni equal round(random(1,${ntwall},$s))  # Pick a random "top" wall atom
variable      randni equal round(random(1,1352,$s))  
variable      randni equal round(random(1,1352,234897))  
#print         "seed is = $s"
#print         "i = $(v_i)"
variable      randatomi equal ${randni}                   # This is to obtain an integer number for atom-id
variable      randatomi equal 1261                   
variable      randzi equal z[${randatomi}]                # Determine the z coordinate of the chosen atom
variable      randzi equal z[1261]                
#print         "z coord of randatom is = ${randzi}"
# if the chosen atom is not a surface atom then restart the loop
if            "${randzi} < $(v_wthick - 0.7)" then "jump MDPBB.in loop"
jump MDPBB.in loop
variable      randni equal round(random(1,${ntwall},$s))  # Pick a random "top" wall atom
variable      randni equal round(random(1,1352,$s))  
variable      randni equal round(random(1,1352,234897))  
#print         "seed is = $s"
#print         "i = $(v_i)"
variable      randatomi equal ${randni}                   # This is to obtain an integer number for atom-id
variable      randatomi equal 177                   
variable      randzi equal z[${randatomi}]                # Determine the z coordinate of the chosen atom
variable      randzi equal z[177]                
#print         "z coord of randatom is = ${randzi}"
# if the chosen atom is not a surface atom then restart the loop
if            "${randzi} < $(v_wthick - 0.7)" then "jump MDPBB.in loop"
jump MDPBB.in loop
variable      randni equal round(random(1,${ntwall},$s))  # Pick a random "top" wall atom
variable      randni equal round(random(1,1352,$s))  
variable      randni equal round(random(1,1352,234897))  
#print         "seed is = $s"
#print         "i = $(v_i)"
variable      randatomi equal ${randni}                   # This is to obtain an integer number for atom-id
variable      randatomi equal 1150                   
variable      randzi equal z[${randatomi}]                # Determine the z coordinate of the chosen atom
variable      randzi equal z[1150]                
#print         "z coord of randatom is = ${randzi}"
# if the chosen atom is not a surface atom then restart the loop
if            "${randzi} < $(v_wthick - 0.7)" then "jump MDPBB.in loop"
jump MDPBB.in loop
variable      randni equal round(random(1,${ntwall},$s))  # Pick a random "top" wall atom
variable      randni equal round(random(1,1352,$s))  
variable      randni equal round(random(1,1352,234897))  
#print         "seed is = $s"
#print         "i = $(v_i)"
variable      randatomi equal ${randni}                   # This is to obtain an integer number for atom-id
variable      randatomi equal 1263                   
variable      randzi equal z[${randatomi}]                # Determine the z coordinate of the chosen atom
variable      randzi equal z[1263]                
#print         "z coord of randatom is = ${randzi}"
# if the chosen atom is not a surface atom then restart the loop
if            "${randzi} < $(v_wthick - 0.7)" then "jump MDPBB.in loop"
set           atom ${randatomi} type 4                    # Set this grafted wall atom as a new type
set           atom 1263 type 4                    
  1 settings made for type
variable      x0 equal x[${randatomi}]                    # Determine its x-coord
variable      x0 equal x[1263]                    
variable      y0 equal y[${randatomi}]                    # Determine its y-coord
variable      y0 equal y[1263]                    
variable      check0 equal ${check}                       # Count the number of atoms in the simulation
variable      check0 equal 1652                       
variable      b equal ${check}+1                          # The grafted bead id will be one higher after being inserted
variable      b equal 1652+1                          
#print         "Grafted Bead ID = $b"
#print         "Random Wall atom = ${randatomi}"
#print         "x = ${x0}"
#print         "y = ${y0}"
variable      flag python A_Check         # Define a flag to check that the atom-id was not previously picked
# If flag = 1 then that means this random atom is already grafted if flag = 0 then atom is free to be grafted
# Define a python function that performs this check and keeps track throughout the loop to ensure no atom is picked twice
python        A_Check input 2 v_randatomi v_M return v_flag format iii file A_Check.py
variable      flag0 equal ${flag}                         # Invoke the python function
variable      flag0 equal 0                         
#print         "flag = ${flag0}"
# If the atom has been picked previously then do not insert and restart the loop
if            "${flag0} == 1" then "jump MDPBB.in loop"
# Otherwise insert the chain directly above the chosen wall atom pointing perpendicular to the wall
create_atoms  1 single ${x0} ${y0} ${z0} mol bs 24987 units box remap yes rotate 0 0 0 1
create_atoms  1 single 5.5559036818887 ${y0} ${z0} mol bs 24987 units box remap yes rotate 0 0 0 1
create_atoms  1 single 5.5559036818887 17.4614115716502 ${z0} mol bs 24987 units box remap yes rotate 0 0 0 1
create_atoms  1 single 5.5559036818887 17.4614115716502 17 mol bs 24987 units box remap yes rotate 0 0 0 1
Created 30 atoms
  create_atoms CPU = 4.96e-05 secs
variable      check1 equal ${check}               # Count the new total number of atoms
variable      check1 equal 1682               
# Check that the molecule has indeed been inserted (This check is no longer an issue).
if            "${check1} != ${check0}" then "create_bonds  single/bond 2 ${randatomi} $b" "next i"
create_bonds  single/bond 2 ${randatomi} $b
create_bonds  single/bond 2 1263 $b
create_bonds  single/bond 2 1263 1653
  2 = max # of 1-2 neighbors
  5 = max # of special neighbors
  special bonds CPU = 0.0029321 secs
next i
jump MDPBB.in loop    # End of the loop
variable      randni equal round(random(1,${ntwall},$s))  # Pick a random "top" wall atom
variable      randni equal round(random(1,1352,$s))  
variable      randni equal round(random(1,1352,234897))  
#print         "seed is = $s"
#print         "i = $(v_i)"
variable      randatomi equal ${randni}                   # This is to obtain an integer number for atom-id
variable      randatomi equal 463                   
variable      randzi equal z[${randatomi}]                # Determine the z coordinate of the chosen atom
variable      randzi equal z[463]                
#print         "z coord of randatom is = ${randzi}"
# if the chosen atom is not a surface atom then restart the loop
if            "${randzi} < $(v_wthick - 0.7)" then "jump MDPBB.in loop"
jump MDPBB.in loop
variable      randni equal round(random(1,${ntwall},$s))  # Pick a random "top" wall atom
variable      randni equal round(random(1,1352,$s))  
variable      randni equal round(random(1,1352,234897))  
#print         "seed is = $s"
#print         "i = $(v_i)"
variable      randatomi equal ${randni}                   # This is to obtain an integer number for atom-id
variable      randatomi equal 352                   
variable      randzi equal z[${randatomi}]                # Determine the z coordinate of the chosen atom
variable      randzi equal z[352]                
#print         "z coord of randatom is = ${randzi}"
# if the chosen atom is not a surface atom then restart the loop
if            "${randzi} < $(v_wthick - 0.7)" then "jump MDPBB.in loop"
jump MDPBB.in loop
variable      randni equal round(random(1,${ntwall},$s))  # Pick a random "top" wall atom
variable      randni equal round(random(1,1352,$s))  
variable      randni equal round(random(1,1352,234897))  
#print         "seed is = $s"
#print         "i = $(v_i)"
variable      randatomi equal ${randni}                   # This is to obtain an integer number for atom-id
variable      randatomi equal 898                   
variable      randzi equal z[${randatomi}]                # Determine the z coordinate of the chosen atom
variable      randzi equal z[898]                
#print         "z coord of randatom is = ${randzi}"
# if the chosen atom is not a surface atom then restart the loop
if            "${randzi} < $(v_wthick - 0.7)" then "jump MDPBB.in loop"
jump MDPBB.in loop
variable      randni equal round(random(1,${ntwall},$s))  # Pick a random "top" wall atom
variable      randni equal round(random(1,1352,$s))  
variable      randni equal round(random(1,1352,234897))  
#print         "seed is = $s"
#print         "i = $(v_i)"
variable      randatomi equal ${randni}                   # This is to obtain an integer number for atom-id
variable      randatomi equal 631                   
variable      randzi equal z[${randatomi}]                # Determine the z coordinate of the chosen atom
variable      randzi equal z[631]                
#print         "z coord of randatom is = ${randzi}"
# if the chosen atom is not a surface atom then restart the loop
if            "${randzi} < $(v_wthick - 0.7)" then "jump MDPBB.in loop"
jump MDPBB.in loop
variable      randni equal round(random(1,${ntwall},$s))  # Pick a random "top" wall atom
variable      randni equal round(random(1,1352,$s))  
variable      randni equal round(random(1,1352,234897))  
#print         "seed is = $s"
#print         "i = $(v_i)"
variable      randatomi equal ${randni}                   # This is to obtain an integer number for atom-id
variable      randatomi equal 196                   
variable      randzi equal z[${randatomi}]                # Determine the z coordinate of the chosen atom
variable      randzi equal z[196]                
#print         "z coord of randatom is = ${randzi}"
# if the chosen atom is not a surface atom then restart the loop
if            "${randzi} < $(v_wthick - 0.7)" then "jump MDPBB.in loop"
jump MDPBB.in loop
variable      randni equal round(random(1,${ntwall},$s))  # Pick a random "top" wall atom
variable      randni equal round(random(1,1352,$s))  
variable      randni equal round(random(1,1352,234897))  
#print         "seed is = $s"
#print         "i = $(v_i)"
variable      randatomi equal ${randni}                   # This is to obtain an integer number for atom-id
variable      randatomi equal 1245                   
variable      randzi equal z[${randatomi}]                # Determine the z coordinate of the chosen atom
variable      randzi equal z[1245]                
#print         "z coord of randatom is = ${randzi}"
# if the chosen atom is not a surface atom then restart the loop
if            "${randzi} < $(v_wthick - 0.7)" then "jump MDPBB.in loop"
jump MDPBB.in loop
variable      randni equal round(random(1,${ntwall},$s))  # Pick a random "top" wall atom
variable      randni equal round(random(1,1352,$s))  
variable      randni equal round(random(1,1352,234897))  
#print         "seed is = $s"
#print         "i = $(v_i)"
variable      randatomi equal ${randni}                   # This is to obtain an integer number for atom-id
variable      randatomi equal 1293                   
variable      randzi equal z[${randatomi}]                # Determine the z coordinate of the chosen atom
variable      randzi equal z[1293]                
#print         "z coord of randatom is = ${randzi}"
# if the chosen atom is not a surface atom then restart the loop
if            "${randzi} < $(v_wthick - 0.7)" then "jump MDPBB.in loop"
jump MDPBB.in loop
variable      randni equal round(random(1,${ntwall},$s))  # Pick a random "top" wall atom
variable      randni equal round(random(1,1352,$s))  
variable      randni equal round(random(1,1352,234897))  
#print         "seed is = $s"
#print         "i = $(v_i)"
variable      randatomi equal ${randni}                   # This is to obtain an integer number for atom-id
variable      randatomi equal 1223                   
variable      randzi equal z[${randatomi}]                # Determine the z coordinate of the chosen atom
variable      randzi equal z[1223]                
#print         "z coord of randatom is = ${randzi}"
# if the chosen atom is not a surface atom then restart the loop
if            "${randzi} < $(v_wthick - 0.7)" then "jump MDPBB.in loop"
set           atom ${randatomi} type 4                    # Set this grafted wall atom as a new type
set           atom 1223 type 4                    
  1 settings made for type
variable      x0 equal x[${randatomi}]                    # Determine its x-coord
variable      x0 equal x[1223]                    
variable      y0 equal y[${randatomi}]                    # Determine its y-coord
variable      y0 equal y[1223]                    
variable      check0 equal ${check}                       # Count the number of atoms in the simulation
variable      check0 equal 1682                       
variable      b equal ${check}+1                          # The grafted bead id will be one higher after being inserted
variable      b equal 1682+1                          
#print         "Grafted Bead ID = $b"
#print         "Random Wall atom = ${randatomi}"
#print         "x = ${x0}"
#print         "y = ${y0}"
variable      flag python A_Check         # Define a flag to check that the atom-id was not previously picked
# If flag = 1 then that means this random atom is already grafted if flag = 0 then atom is free to be grafted
# Define a python function that performs this check and keeps track throughout the loop to ensure no atom is picked twice
python        A_Check input 2 v_randatomi v_M return v_flag format iii file A_Check.py
variable      flag0 equal ${flag}                         # Invoke the python function
variable      flag0 equal 0                         
#print         "flag = ${flag0}"
# If the atom has been picked previously then do not insert and restart the loop
if            "${flag0} == 1" then "jump MDPBB.in loop"
# Otherwise insert the chain directly above the chosen wall atom pointing perpendicular to the wall
create_atoms  1 single ${x0} ${y0} ${z0} mol bs 24987 units box remap yes rotate 0 0 0 1
create_atoms  1 single 10.3181068377933 ${y0} ${z0} mol bs 24987 units box remap yes rotate 0 0 0 1
create_atoms  1 single 10.3181068377933 15.874010519682 ${z0} mol bs 24987 units box remap yes rotate 0 0 0 1
create_atoms  1 single 10.3181068377933 15.874010519682 17 mol bs 24987 units box remap yes rotate 0 0 0 1
Created 30 atoms
  create_atoms CPU = 8.45e-05 secs
variable      check1 equal ${check}               # Count the new total number of atoms
variable      check1 equal 1712               
# Check that the molecule has indeed been inserted (This check is no longer an issue).
if            "${check1} != ${check0}" then "create_bonds  single/bond 2 ${randatomi} $b" "next i"
create_bonds  single/bond 2 ${randatomi} $b
create_bonds  single/bond 2 1223 $b
create_bonds  single/bond 2 1223 1683
  2 = max # of 1-2 neighbors
  5 = max # of special neighbors
  special bonds CPU = 0.0038416 secs
next i
jump MDPBB.in loop    # End of the loop
variable      randni equal round(random(1,${ntwall},$s))  # Pick a random "top" wall atom
variable      randni equal round(random(1,1352,$s))  
variable      randni equal round(random(1,1352,234897))  
#print         "seed is = $s"
#print         "i = $(v_i)"
variable      randatomi equal ${randni}                   # This is to obtain an integer number for atom-id
variable      randatomi equal 1078                   
variable      randzi equal z[${randatomi}]                # Determine the z coordinate of the chosen atom
variable      randzi equal z[1078]                
#print         "z coord of randatom is = ${randzi}"
# if the chosen atom is not a surface atom then restart the loop
if            "${randzi} < $(v_wthick - 0.7)" then "jump MDPBB.in loop"
jump MDPBB.in loop
[...]
 1662000    11.072772    1.4787257    9.5940466  -0.30084147   0.98603605    1.2726099   0.79566966   -3.5502959            3    5.6136126     7.875596    7.9408307     1.024411 -0.015722335  -0.30342775 0.0053616691    5.4390532    5.4277933  -0.64124056    2.0611952 0.0066891273    1.0363938        0.075    2.0516035          0.5   0.11515487    4.3419788    2.8139532    30.801768  0.015254484  -0.30733938 -0.0059564563   0.40804447   -2.0602278    3.4266089 
 1663000    11.104019    1.4846443    9.6193749  -0.27227458   0.98998268    1.2690851   0.80459045   -3.5502959            3    5.4414566    7.7209403    7.8545801   0.74884929 -0.0012332462  -0.16080115 -0.030947933    5.2649401    5.2561519            0            0   0.14674554    1.0282324        0.075    2.0642576          0.5   0.11424805    4.3764425    2.8226114    30.801768 0.00026106474  -0.35974756  0.025866466   0.35426439   0.23018639    4.2915518 
 1664000    11.037629    1.4658771    9.5717523  -0.31495124    0.9774684    1.2741665   0.78036057   -3.5502959            3    5.6123256    7.8447476    7.9421639    1.0500652 0.0052732901   -0.2714589 0.0042864798    5.4411248     5.426279  -0.22734474    1.9084764  -0.36433275    1.0294379        0.075    2.0561822          0.5   0.11438199    4.3713176    2.8052964    30.801768 -0.019526248  -0.47570719  0.020947937   0.37298361    3.2339977     6.886036 
 1665000    11.116239    1.4875033    9.6287357   -0.2912611    0.9918891    1.2564681   0.81616369   -3.5502959            3    5.5200001    7.7153182    7.8986318    0.9460502 -0.0030607846 -0.095031464  0.023851415    5.3409446    5.3365377            0            0   0.04520649    1.0312046        0.075    2.0762755          0.5   0.11457829    4.3638286     2.811229    30.801768  0.002856389  -0.37054852  0.010410686    0.3222826    1.0175647     4.163525 
 1666000    11.074047      1.47554    9.5985072  -0.30268408   0.98391179    1.2692821   0.79434563   -3.5502959            3    5.7235309    7.9390686    7.9972474    1.2342767 -0.0085691488  0.043463379 0.0088353949     5.549262    5.5381975            0            0  0.018194744     1.046627        0.075    2.0843406          0.5   0.11629189    4.2995259    2.8239726    30.801768 -0.016794272  -0.36143709  -0.01795779   0.36331694 -0.089625407    5.2081838 
 1667000    11.050822    1.4645388    9.5862836    -0.295173   0.97657606    1.2481831   0.79616744   -3.5502959            3     5.738339      7.95723    8.0350199     1.222767  0.017452521 -0.072943749  0.055062884    5.5636704    5.5560863   -1.2966203    1.1267231  0.064789494    1.0409412        0.075    2.0544474          0.5   0.11566014    4.3230106    2.8288157    30.801768  0.016243453  -0.29253577 -0.013006529    0.4629758   0.95939565    5.1386001 
 1668000    11.049437    1.4555349    9.5939022  -0.30924132   0.97057207    1.2407053   0.79114212   -3.5502959            3    5.3525498    7.6696248    7.7582865   0.62973811 0.00055515262  0.069254628 -0.016052362    5.1789837    5.1713891   0.16346889    1.0931207 -0.016572113    1.0113275        0.075    2.0867677          0.5   0.11236972    4.4495974    2.7851999    30.801768 -0.0046657739  -0.29303828 -0.0070842461   0.34848175    -2.376711    5.0883776 
 1669000    11.070816    1.4710377    9.5997781  -0.30598364   0.98090956    1.2476063   0.80377062   -3.5502959            3    5.7166455    7.9723722    8.0285342      1.14903 0.0036847547  -0.16614187  0.077072972    5.5403089    5.5344771   0.83239766   0.51664529   0.02582776    1.0375516        0.075    2.0609439          0.5   0.11528351    4.3371339    2.8006441    30.801768 -0.00053010424  -0.33327496 -0.021005491   0.43658025    2.2195713    6.1468491 
 1670000    11.052029    1.4479054    9.6041236   -0.3067304   0.96548462    1.2535132   0.77414242   -3.5502959            3    5.6318795    7.7553211    7.9905154    1.1498021 -0.022061881 -0.055760925 -0.0070835261    5.4620429    5.4488486  0.057049428   0.13364119   0.66677227    1.0358725        0.075    2.0676687          0.5   0.11509694     4.344164    2.8462274    30.801768 0.0010111731  -0.44493177  0.015834223   0.30904173    1.8223679    4.3454053 
 1671000    11.028183    1.4689071    9.5592755  -0.31226787   0.97948886    1.2801736   0.77972844   -3.5502959            3    5.4559468    7.7486041    7.8801019   0.73913443  0.013273024  -0.24142388   0.12079958    5.2848847    5.2690231            0            0   0.18970319    1.0315133        0.075    2.0777888          0.5   0.11461259    4.3625226    2.8184969    30.801768 0.0093840643  -0.36214168  0.014578393    0.3148863  -0.65966107  -0.21199487 
 1672000    11.062217    1.4725951     9.589622  -0.29924303   0.98194809     1.242979   0.80858046   -3.5502959            3       5.7296    8.0165386    8.0472658    1.1249956 -0.014795201  0.053406378  0.018524323    5.5522082    5.5481072     -1.06571   0.91386321   0.09361143    1.0335255        0.075    2.1052251          0.5   0.11483617    4.3540288    2.8099703    30.801768 -0.045368159  -0.36661433    0.0154444   0.35050004  -0.18856012    4.2272115 
 1673000     11.06615    1.4843979    9.5817517  -0.30054076   0.98981836    1.2750348   0.80035685   -3.5502959            3    5.5107641    7.7739567    7.9354547   0.82288096  0.014166685 -0.035522053 -0.082725021    5.3351764    5.3245908            0            0   0.25212416    1.0381324        0.075    2.1213381          0.5   0.11534804    4.3347072     2.824794    30.801768  0.020905499  -0.32986462 -0.0050331847   0.34018307    1.9585176   0.54670233 
 1674000    11.074745    1.4516095    9.6231352  -0.29943968   0.96795459    1.2659832   0.76995775   -3.5502959            3    5.5140035    7.8215942    7.8959336   0.82448279 0.0047854535  -0.23229834 -0.087771073     5.345085    5.3291518 -0.040795271     1.250072  0.070585053    1.0411083        0.075     2.103171          0.5    0.1156787     4.322317    2.7903738    30.801768 -0.031208049  -0.43838964 -0.037012587   0.35451814  -0.70633416    6.6943916 
 1675000    11.088769    1.4743686    9.6144006  -0.30413155   0.98313066    1.2622029   0.79775595   -3.5502959            3    5.4805082    7.7619054    7.8957525   0.78386688 0.0068619024  -0.13013118 -0.080903387    5.3054911    5.2962085            0            0   0.10425298    1.0149297        0.075    2.1008999          0.5   0.11276997    4.4338045     2.796122    30.801768  0.016985894  -0.37544285 -0.0069354519   0.34391876   -2.4845085 -0.048597402 
 1676000     11.10372     1.495815     9.607905  -0.30437631   0.99743142    1.2894266   0.80346104   -3.5502959            3    5.5369634    7.8253946    7.8762353   0.90926023  0.005106068  0.071456212  0.040495165    5.3606947    5.3486886    1.8945674    1.7991877  -0.25468446    1.0316043        0.075    2.0794164          0.5    0.1146227    4.3621375     2.817662    30.801768  0.031486196  -0.31713873 -0.026549029   0.40599344  0.049985227    4.6243657 
 1677000     11.09193    1.5129594    9.5789708  -0.30810269    1.0088636    1.2987258   0.81631703   -3.5502959            3    5.3891076    7.6096332    7.8550529   0.70263658 0.0034034515  -0.16150743  0.026460007    5.2100184     5.199475   -1.7870078    3.7593433    0.5139626    1.0198217        0.075    2.0828909          0.5   0.11331352    4.4125361    2.8219862    30.801768  0.016555757  -0.35528543 -0.017320531   0.31210018   -1.3144878    4.7859821 
 1678000    11.100043    1.4622251     9.637818  -0.29989185   0.97503319    1.2626208   0.78398803   -3.5502959            3    5.4814338    7.7424754    7.8711838   0.83064227  0.030735449  -0.12673781 -0.076585746    5.3094372    5.2970731            0            0   0.19592666    1.0167481        0.075    2.0405172          0.5   0.11297202    4.4258748    2.8018262    30.801768 -0.0012814863  -0.30236167 0.0036856802   0.38701082    2.2804805    1.4827529 
 1679000    11.101163    1.4740677    9.6270952  -0.29818961   0.98293002    1.2555799   0.80182969   -3.5502959            3    5.5040984    7.7598175    7.8458005   0.90667722 -0.0042291989 -0.064551547 -0.089590365    5.3281876    5.3207658            0            0   0.15228098    1.0168581        0.075    2.0746376          0.5   0.11298423    4.4253963    2.7790656    30.801768 0.0028912584  -0.33514825 -0.0063855469    0.3630554   0.78091414    2.7651357 
 1680000    11.105542    1.4943918    9.6111501  -0.31228929   0.99648246    1.2755134    0.8111402   -3.5502959            3    5.4742698    7.7153919    7.9142569   0.79316052 -0.0063847916  0.040320838  0.078798868    5.2963164    5.2880265  -0.38673328   0.58194259   0.28946242    1.0186703        0.075     2.096141          0.5   0.11318559    4.4175235    2.8168275    30.801768 0.0021488919  -0.34132676  0.034469216   0.35332581    1.8319265   -1.3398154 
 1681000    11.103084    1.4755032    9.6275805  -0.28544964   0.98388723     1.280119   0.78709216   -3.5502959            3    5.5492613    7.7634948    7.9197535   0.96453566 -0.041503642   -0.1280302 -0.039078087    5.3765837    5.3623456            0            0 -0.075852663     1.024257        0.075    2.1002942          0.5   0.11380634    4.3934284    2.8070446    30.801768 -0.028718272  -0.45707998 -0.0079462315   0.34319125   -2.6545135    3.4557469 
 1682000    11.084394    1.4894625    9.5949318  -0.29649614   0.99319553    1.2695819   0.80961214   -3.5502959            3    5.5440051    7.8295049    7.9444207   0.85808961  0.014421843  -0.23729271  -0.11376644    5.3663869    5.3586279  -0.31829117    1.0112919  0.091271537    1.0405944        0.075    2.1019928          0.5    0.1156216    4.3244516    2.8284441    30.801768 -0.0047827747   -0.2905505 -0.025839997   0.37389705    2.6522557    2.4504888 
 1683000    11.088396    1.4729282    9.6154678  -0.29108503   0.98217019    1.2784733   0.78532702   -3.5502959            3    5.3683164     7.667361    7.7910681    0.6465199  0.047816689 -0.024213287 -0.020159156     5.196026    5.1816409            0            0   0.53442295     1.032056        0.075    2.0912009          0.5   0.11467289    4.3602284     2.812825    30.801768 -0.023363891  -0.36408937 0.0059180013    0.3948626    1.5372483    3.2188141 
 1684000    11.114144    1.5010599    9.6130843  -0.30144643    1.0009288    1.2843863   0.81264207   -3.5502959            3    5.5659814    7.8209297    7.8708135     1.006201 -0.011733035  -0.02351969  0.065228243    5.3876985    5.3784426            0            0  0.076628376    1.0280672        0.075    2.1135057          0.5   0.11422968    4.3771459    2.7879151    30.801768  0.033452627  -0.42221507 -0.0073079552   0.34929716 -0.083156751    0.6415353 
 1685000    11.116659    1.5124325    9.6042262  -0.30401622    1.0085123     1.300823   0.81433595   -3.5502959            3    5.7860477    7.8945456    8.0577552    1.4058424 -0.0002082752  -0.24723277  0.065693559    5.6073932    5.5961089  -0.64930054   0.69797847  -0.47879149    1.0224366        0.075    2.1039778          0.5   0.11360406    4.4012511    2.7997828    30.801768  0.018197577  -0.38711349 0.0037986373     0.329693 -0.039023218    5.7096697 
 1686000    11.099719    1.4864732    9.6132459  -0.27266939   0.99120217    1.2806272   0.79894009   -3.5502959            3     5.560082    7.8775801    7.9494225   0.85324336 0.00050675444 -0.017170077   0.10597403    5.3848051     5.373092  -0.86314346    1.5502787   0.26301386    1.0203667        0.075    2.1136623          0.5   0.11337408    4.4101792    2.8059703    30.801768  0.029562076  -0.42194797 -0.00068781577   0.31927484   0.70262164      3.54258 
 1687000     11.14037    1.5234453    9.6169251  -0.27944509    1.0158558    1.2893546   0.83420258   -3.5502959            3    5.5359264    7.8380665    7.8981774   0.87153531  0.014617602  -0.14350575  0.089274678    5.3529134    5.3476621            0            0  -0.16249314    1.0416081        0.075    2.1037277          0.5   0.11573423    4.3202429    2.8389124    30.801768  0.032172771  -0.35913261 -0.027616546   0.38333721    2.7816843    2.9565515 
 1688000    11.097535    1.5061736    9.5913616  -0.29288061    1.0043387    1.2919576   0.81328353   -3.5502959            3    5.5767729    7.8365562    7.9392337   0.95452894  0.021672166  -0.24017091  0.028287095    5.3983493    5.3881286   0.14154435    1.2322515   0.09120612    1.0295586        0.075    2.1023601          0.5   0.11439539    4.3708053    2.8193848    30.801768 -0.020628014  -0.33678889 -0.0028690929   0.44294761   0.64097551    6.1404669 
 1689000       11.094     1.480554    9.6134457  -0.28427993    0.9872552    1.2986807   0.78034908   -3.5502959            3    5.6281463    7.9056028    7.9520409    1.0267953 -0.0037655792 -0.099378968  0.023815904    5.4569481    5.4385203  -0.68397279   0.88862948 0.0044674798    1.0166308        0.075    2.0853021          0.5   0.11295898    4.4263856    2.7692684    30.801768 -0.00063037378  -0.40178577  0.019449357   0.31010328   0.36736813    3.2049523 
 1690000    11.132571    1.4983438    9.6342274  -0.29978762   0.99911771    1.3016932   0.79810619   -3.5502959            3    5.6352552    7.8310768    8.0009202    1.0737685  0.044048175  0.018386428   0.11528309    5.4601613    5.4451893            0            0  -0.45472334    1.0284823        0.075    2.0996899          0.5   0.11427582     4.375379    2.8056883    30.801768 0.0060945736  -0.35871664  0.019828761     0.335941    1.0009195   0.45010306 
 1691000    11.090632    1.4759773    9.6146542  -0.28420979   0.98420338    1.2781581   0.78892396   -3.5502959            3    5.5039621    7.8524846    7.9029859   0.75641567 0.0072193946  -0.12488009  0.018549334    5.3308826    5.3173327   0.13949031    2.0567493   0.32190608    1.0168107        0.075    2.0877512          0.5   0.11297897    4.4256024    2.8165683    30.801768 -0.014943938  -0.29809122  0.009870937   0.26703737   0.86738835    2.3636902 
 1692000    11.101039    1.4989892    9.6020501  -0.29458726   0.99954805    1.2919167   0.80532987   -3.5502959            3    5.5871905    7.7981342     7.928213    1.0352242 0.0086538808  0.049209596   0.17127646    5.4105118    5.3985521   0.25986923   0.21140125   0.16896118    1.0343424        0.075    2.0939235          0.5   0.11492693    4.3505903    2.8138222    30.801768  0.053499647  -0.45245976 -0.017582981   0.32291152    1.3681471   -1.2288301 
 1693000    11.095457    1.4828946    9.6125622  -0.29803458   0.98881595    1.2861679   0.79127715   -3.5502959            3    5.4455492    7.6906145    7.8748605   0.77117275 -0.0019951376   0.11671194  -0.12188772    5.2719535    5.2577503   0.31072619   0.62713151    0.3266809    1.0148432        0.075    2.1134643          0.5   0.11276036    4.4341823    2.7960048    30.801768  0.019414323  -0.32118813 -0.010339571   0.24322974   0.26559414     1.382504 
 1694000    11.147963    1.5320594    9.6159032  -0.32660489    1.0215998    1.3065044   0.83235752   -3.5502959            3    5.4407946    7.6515831    7.8284032   0.84239741  0.027164828  -0.21623501 -0.021104827    5.2581864    5.2500262   0.38868929     1.352329   0.35492011     1.034141        0.075    2.1102962          0.5   0.11490455    4.3514378    2.8288524    30.801768  0.035307026  -0.37905184  0.010602486   0.32583792   -1.0207877    7.5000232 
 1695000    11.136646     1.483257     9.653389  -0.28098195   0.98905762    1.2582582   0.81025527   -3.5502959            3    5.5492763    7.8241555    7.9036457   0.92002772  0.028821193  0.039153256 -0.065187012     5.371517    5.3655526    1.0451628   0.66872564  -0.11377022    1.0032992        0.075     2.094892          0.5   0.11147768    4.4852026    2.7976332    30.801768 0.0065480406  -0.31516144 -0.0033980631   0.32696202   -2.4081204   -3.2925628 
 1696000    11.107168    1.5033125    9.6038559  -0.29951243    1.0024309    1.3045281   0.80173889   -3.5502959            3    5.5513578     7.844625    7.9045167   0.90493164  0.020257886 -0.078233954  0.055672743    5.3754669     5.360878  0.045753217    2.2784328   0.14361983    1.0162397        0.075    2.0779171          0.5   0.11291553     4.428089    2.7873868    30.801768 -0.023529788  -0.37152809 -0.012056219   0.32807637   0.11106352    3.6518441 
 1697000    11.150467    1.4835097    9.6669571  -0.27871957   0.98922608    1.2567943    0.8115102   -3.5502959            3    5.7319805    7.9535112    8.0079169    1.2345133 -0.00027439127   -0.2658814  0.042581713    5.5539459    5.5484705     1.480309   0.88733571   0.12801601    1.0157623        0.075     2.070074          0.5   0.11286248    4.4301702    2.7919212    30.801768 -0.021453299   -0.4045792 0.0085776095   0.34344867    2.4318171    1.2206169 
 1698000    11.154882     1.521548    9.6333341  -0.29967464    1.0145906    1.2974281   0.82672151   -3.5502959            3    5.7559537    7.8968584    8.0223827      1.34862 -0.042703696   0.13431761  0.076893306    5.5745819    5.5665106 -0.018373881    1.8734777    0.3545147    1.0369462        0.075     2.061921          0.5   0.11521625    4.3396657    2.8326579    30.801768 -0.0001358363  -0.40268377 -0.005590261   0.37616682  -0.79578803    3.3414412 
 1699000    11.118218    1.5138971    9.6043209  -0.28339495    1.0094889    1.3116052    0.8087868   -3.5502959            3    5.6842094    7.9388463    8.0334994    1.0802826 0.0056088113  -0.19902617  0.066303613    5.5067723    5.4926963 -0.073615986    1.3380831   0.18763249    1.0179566        0.075    2.0471528          0.5   0.11310629    4.4206207    2.8189175    30.801768 -0.014260944  -0.37984575 -0.010988817   0.40749626    1.3932692    4.4200867 
 1700000     11.13128    1.4931956    9.6380841  -0.28344669   0.99568483    1.2733969   0.81122003   -3.5502959            3    5.4845278    7.7270298    7.8823421    0.8442116  -0.01665135  -0.13789783 0.0045066464    5.3065569    5.2985936            0            0 -0.073569561    1.0232234        0.075    2.0768918          0.5   0.11369149    4.3978664    2.8376545    30.801768 -0.016231304  -0.38116449 0.0035059875   0.38646702  -0.37543375    2.4981972 
Loop time of 750.278 on 1 procs for 1000000 steps with 4504 atoms

Performance: 575786.750 tau/day, 1332.840 timesteps/s
98.8% CPU use with 1 MPI tasks x 1 OpenMP threads

MPI task timing breakdown:
Section |  min time  |  avg time  |  max time  |%varavg| %total
---------------------------------------------------------------
Pair    | 96.438     | 96.438     | 96.438     |   0.0 | 12.85
Bond    | 174.24     | 174.24     | 174.24     |   0.0 | 23.22
Neigh   | 285.47     | 285.47     | 285.47     |   0.0 | 38.05
Comm    | 17.185     | 17.185     | 17.185     |   0.0 |  2.29
Output  | 2.0535     | 2.0535     | 2.0535     |   0.0 |  0.27
Modify  | 160.24     | 160.24     | 160.24     |   0.0 | 21.36
Other   |            | 14.66      |            |       |  1.95

Nlocal:    4504 ave 4504 max 4504 min
Histogram: 1 0 0 0 0 0 0 0 0 0
Nghost:    1433 ave 1433 max 1433 min
Histogram: 1 0 0 0 0 0 0 0 0 0
Neighs:    9801 ave 9801 max 9801 min
Histogram: 1 0 0 0 0 0 0 0 0 0

Total # of neighbors = 9801
Ave neighs/atom = 2.17607
Ave special neighs/atom = 6.98401
Neighbor list builds = 148411
Dangerous builds = 0

#--- Write Restart File ---#

write_restart  ecs.rst
WARNING: compute stress/mop does not account for bond potentials (src/USER-MISC/compute_stress_mop.cpp:193)
WARNING: compute stress/mop does not account for bond potentials (src/USER-MISC/compute_stress_mop.cpp:193)
WARNING: compute stress/mop does not account for bond potentials (src/USER-MISC/compute_stress_mop.cpp:193)
shell          python post.py
shell          mkdir $(v_Wall_v)_V
shell          mkdir 0.5_V
shell          cp -f *.csv $(v_Wall_v)_V
s