12976
Atoms. Timestep: 4000000
1 15 7.10543e-15 15.2043
1 15.7937 29.2063 15.2043
1 15.8212 29.9387 14.3648
1 15.0467 29.2061 14.3769
1 16.5874 7.10543e-15 15.2043
1 17.3811 29.2063 15.2043
1 17.3971 29.9331 14.3762
1 16.6128 29.1795 14.412
1 18.1748 7.10543e-15 15.2043
1 18.9685 29.2063 15.2043
1 18.993 29.9082 14.3811
1 18.1895 29.1624 14.426
1 19.7622 7.10543e-15 15.2043
1 20.5559 29.2063 15.2043
1 20.5705 29.9122 14.3761
1 19.7819 29.1689 14.4284
1 21.3496 7.10543e-15 15.2043
1 22.1433 29.2063 15.2043
1 22.1696 29.9179 14.3777
1 21.3516 29.1493 14.4086
1 22.937 7.10543e-15 15.2043
1 23.7307 29.2063 15.2043
1 23.7502 29.9315 14.3704
1 22.9456 29.1484 14.4209
1 24.5244 7.10543e-15 15.2043
1 25.3181 29.2063 15.2043
1 25.3439 29.9229 14.3667
1 24.5514 29.1758 14.3883
1 26.1118 7.10543e-15 15.2043
1 26.9055 29.2063 15.2043
1 26.9119 29.9148 14.3769
1 26.115 29.177 14.404
1 27.6992 7.10543e-15 15.2043
1 28.4929 29.2063 15.2043
1 28.4862 29.9366 14.3504
1 27.6965 29.202 14.387
1 29.2866 7.10543e-15 15.2043
1 0.08031 29.2063 15.2043
1 0.0602712 29.9301 14.3684
1 29.2838 29.199 14.3776
1 0.874011 7.10543e-15 15.2043
1 1.66771 29.2063 15.2043
1 1.69062 29.9369 14.3743
1 0.864481 29.184 14.4079
1 2.46141 7.10543e-15 15.2043
1 3.25511 29.2063 15.2043
1 3.26132 29.9174 14.3974
1 2.4835 29.159 14.4071
1 4.04881 7.10543e-15 15.2043
1 4.84251 29.2063 15.2043
1 4.81715 29.9283 14.3463
1 4.05353 29.1575 14.3942
1 5.63621 7.10543e-15 15.2043
1 6.42991 29.2063 15.2043
1 6.40437 29.9259 14.3962
1 5.64029 29.1634 14.4012
1 7.22361 7.10543e-15 15.2043
1 8.01732 29.2063 15.2043
1 8.0191 29.9406 14.3909
1 7.21099 29.1689 14.4052
1 8.81102 7.10543e-15 15.2043
1 9.60472 29.2063 15.2043
1 9.60031 29.9325 14.3837
1 8.7959 29.1641 14.3868
1 10.3984 7.10543e-15 15.2043
1 11.1921 29.2063 15.2043
1 11.1809 29.9466 14.3562
1 10.4162 29.1961 14.3979
1 11.9858 7.10543e-15 15.2043
1 12.7795 29.2063 15.2043
1 12.7614 29.9439 14.3747
1 11.9421 29.1631 14.3906
1 13.5732 7.10543e-15 15.2043
1 14.3669 29.2063 15.2043
1 14.3115 29.9377 14.37
1 13.526 29.1675 14.4133
1 15 28.4126 15.2043
1 15.7937 27.6189 15.2043
1 15.8116 28.4127 14.4174
1 15.0857 27.6107 14.3962
1 16.5874 28.4126 15.2043
1 17.3811 27.6189 15.2043
1 17.3801 28.4045 14.4122
1 16.6093 27.6083 14.4232
1 18.1748 28.4126 15.2043
1 18.9685 27.6189 15.2043
1 18.9894 28.3987 14.4054
1 18.2038 27.6124 14.4287
1 19.7622 28.4126 15.2043
1 20.5559 27.6189 15.2043
1 20.5373 28.3565 14.3789
1 19.7913 27.6066 14.4064
1 21.3496 28.4126 15.2043
1 22.1433 27.6189 15.2043
1 22.1446 28.3918 14.4188
1 21.3436 27.6169 14.3948
1 22.937 28.4126 15.2043
1 23.7307 27.6189 15.2043
1 23.7664 28.3619 14.3781
1 22.952 27.6016 14.4295
1 24.5244 28.4126 15.2043
1 25.3181 27.6189 15.2043
1 25.3443 28.3825 14.4217
1 24.538 27.5927 14.402
1 26.1118 28.4126 15.2043
1 26.9055 27.6189 15.2043
1 26.9174 28.4024 14.4075
1 26.123 27.5876 14.4195
1 27.6992 28.4126 15.2043
1 28.4929 27.6189 15.2043
1 28.4858 28.4213 14.3892
1 27.7095 27.6088 14.4143
1 29.2866 28.4126 15.2043
1 0.08031 27.6189 15.2043
1 0.0915043 28.3848 14.4077
1 29.2737 27.6248 14.4128
1 0.874011 28.4126 15.2043
1 1.66771 27.6189 15.2043
1 1.69401 28.3841 14.4179
1 0.895259 27.6009 14.4027
1 2.46141 28.4126 15.2043
1 3.25511 27.6189 15.2043
1 3.29236 28.4029 14.4038
1 2.47094 27.6076 14.3962
1 4.04881 28.4126 15.2043
1 4.84251 27.6189 15.2043
1 4.85121 28.3855 14.4066
1 4.03206 27.5898 14.4053
1 5.63621 28.4126 15.2043
1 6.42991 27.6189 15.2043
1 6.42929 28.3864 14.4045
1 5.62394 27.6412 14.3809
1 7.22361 28.4126 15.2043
1 8.01732 27.6189 15.2043
1 7.98904 28.4034 14.3855
1 7.22408 27.5902 14.4157
1 8.81102 28.4126 15.2043
1 9.60472 27.6189 15.2043
1 9.59702 28.4116 14.4053
1 8.80138 27.589 14.3977
1 10.3984 28.4126 15.2043
1 11.1921 27.6189 15.2043
1 11.1903 28.4052 14.3883
1 10.3913 27.6076 14.4108
1 11.9858 28.4126 15.2043
1 12.7795 27.6189 15.2043
1 12.7606 28.3982 14.4016
1 11.9742 27.6123 14.4043
1 13.5732 28.4126 15.2043
1 14.3669 27.6189 15.2043
1 14.2988 28.4006 14.3673
1 13.5592 27.6101 14.397
1 15 26.8252 15.2043
1 15.7937 26.0315 15.2043
1 15.8179 26.8101 14.3783
1 15.0702 26.0186 14.3708
1 16.5874 26.8252 15.2043
1 17.3811 26.0315 15.2043
1 17.397 26.8147 14.4353
1 16.6136 26.0297 14.4158
1 18.1748 26.8252 15.2043
1 18.9685 26.0315 15.2043
1 18.9701 26.7972 14.411
1 18.1714 26.0024 14.4092
1 19.7622 26.8252 15.2043
1 20.5559 26.0315 15.2043
1 20.5695 26.7954 14.4085
1 19.7646 26.0434 14.4269
1 21.3496 26.8252 15.2043
1 22.1433 26.0315 15.2043
1 22.1377 26.8167 14.4322
1 21.3616 26.0357 14.4412
1 22.937 26.8252 15.2043
1 23.7307 26.0315 15.2043
1 23.727 26.8396 14.4086
1 22.9439 26.0218 14.4069
1 24.5244 26.8252 15.2043
1 25.3181 26.0315 15.2043
1 25.3151 26.808 14.4168
1 24.5148 26.057 14.4195
1 26.1118 26.8252 15.2043
1 26.9055 26.0315 15.2043
1 26.9174 26.8232 14.4305
1 26.1242 26.0499 14.3927
1 27.6992 26.8252 15.2043
1 28.4929 26.0315 15.2043
1 28.4768 26.8314 14.4126
1 27.6896 26.0341 14.4253
1 29.2866 26.8252 15.2043
1 0.08031 26.0315 15.2043
1 0.0772953 26.8461 14.4034
1 29.2542 26.0163 14.4065
1 0.874011 26.8252 15.2043
1 1.66771 26.0315 15.2043
1 1.66296 26.8248 14.3979
1 0.869242 26.0285 14.4058
1 2.46141 26.8252 15.2043
1 3.25511 26.0315 15.2043
1 3.2509 26.8066 14.3957
1 2.4513 26.0337 14.3974
1 4.04881 26.8252 15.2043
1 4.84251 26.0315 15.2043
1 4.84564 26.8271 14.417
1 4.05842 26.0041 14.4113
1 5.63621 26.8252 15.2043
1 6.42991 26.0315 15.2043
1 6.4122 26.8205 14.3983
1 5.6187 26.0206 14.4296
1 7.22361 26.8252 15.2043
1 8.01732 26.0315 15.2043
1 8.02039 26.8492 14.4051
1 7.22809 26.0235 14.4326
1 8.81102 26.8252 15.2043
1 9.60472 26.0315 15.2043
1 9.62052 26.8334 14.4251
1 8.80088 26.0218 14.4043
1 10.3984 26.8252 15.2043
1 11.1921 26.0315 15.2043
1 11.1874 26.8304 14.419
1 10.3889 26.0364 14.4226
1 11.9858 26.8252 15.2043
1 12.7795 26.0315 15.2043
1 12.7448 26.8232 14.4082
1 11.9594 26.0303 14.3916
1 13.5732 26.8252 15.2043
1 14.3669 26.0315 15.2043
1 14.2933 26.8145 14.4034
1 13.5543 26.0236 14.3942
1 15 25.2378 15.2043
1 15.7937 24.4441 15.2043
1 15.8156 25.2298 14.391
1 15.0755 24.4365 14.3823
1 16.5874 25.2378 15.2043
1 17.3811 24.4441 15.2043
1 17.3846 25.2433 14.4056
1 16.5794 24.4244 14.4099
1 18.1748 25.2378 15.2043
1 18.9685 24.4441 15.2043
1 18.9953 25.2287 14.4229
1 18.1974 24.4719 14.4199
1 19.7622 25.2378 15.2043
1 20.5559 24.4441 15.2043
1 20.5399 25.2349 14.4318
1 19.7577 24.4404 14.4404
1 21.3496 25.2378 15.2043
1 22.1433 24.4441 15.2043
1 22.1278 25.2315 14.4374
1 21.3522 24.4297 14.4301
1 22.937 25.2378 15.2043
1 23.7307 24.4441 15.2043
1 23.7355 25.2332 14.4114
1 22.9358 24.443 14.4308
1 24.5244 25.2378 15.2043
1 25.3181 24.4441 15.2043
1 25.3521 25.2712 14.421
1 24.5435 24.4625 14.4256
1 26.1118 25.2378 15.2043
1 26.9055 24.4441 15.2043
1 26.9001 25.2312 14.401
1 26.1239 24.4565 14.4138
1 27.6992 25.2378 15.2043
1 28.4929 24.4441 15.2043
1 28.509 25.2167 14.4086
1 27.7024 24.428 14.4191
1 29.2866 25.2378 15.2043
1 0.08031 24.4441 15.2043
1 0.0719832 25.2262 14.4124
1 29.2816 24.4161 14.4252
1 0.874011 25.2378 15.2043
1 1.66771 24.4441 15.2043
1 1.67042 25.232 14.401
1 0.877216 24.4222 14.3747
1 2.46141 25.2378 15.2043
1 3.25511 24.4441 15.2043
1 3.26487 25.2298 14.4106
1 2.45686 24.4351 14.3946
1 4.04881 25.2378 15.2043
1 4.84251 24.4441 15.2043
1 4.83572 25.2214 14.4293
1 4.00562 24.4277 14.4159
1 5.63621 25.2378 15.2043
1 6.42991 24.4441 15.2043
1 6.43961 25.2264 14.4117
1 5.66116 24.4302 14.381
1 7.22361 25.2378 15.2043
1 8.01732 24.4441 15.2043
1 7.99823 25.2561 14.42
1 7.24343 24.4474 14.3992
1 8.81102 25.2378 15.2043
1 9.60472 24.4441 15.2043
1 9.57278 25.2309 14.431
1 8.79052 24.4284 14.4309
1 10.3984 25.2378 15.2043
1 11.1921 24.4441 15.2043
1 11.1678 25.2201 14.4327
1 10.3761 24.4387 14.4422
1 11.9858 25.2378 15.2043
1 12.7795 24.4441 15.2043
1 12.7472 25.2541 14.4206
1 11.9652 24.4357 14.3925
1 13.5732 25.2378 15.2043
1 14.3669 24.4441 15.2043
1 14.3203 25.2371 14.3769
1 13.5609 24.4486 14.3871
1 15 23.6504 15.2043
1 15.7937 22.8567 15.2043
1 15.811 23.628 14.3885
1 15.074 22.8526 14.4014
1 16.5874 23.6504 15.2043
1 17.3811 22.8567 15.2043
1 17.3988 23.6523 14.4203
1 16.6197 22.8443 14.4093
1 18.1748 23.6504 15.2043
1 18.9685 22.8567 15.2043
1 18.9992 23.6355 14.4016
1 18.1686 22.8537 14.3974
1 19.7622 23.6504 15.2043
1 20.5559 22.8567 15.2043
1 20.5466 23.6277 14.4251
1 19.7736 22.8367 14.4203
1 21.3496 23.6504 15.2043
1 22.1433 22.8567 15.2043
1 22.1633 23.6571 14.4305
1 21.3477 22.8631 14.4251
1 22.937 23.6504 15.2043
1 23.7307 22.8567 15.2043
1 23.7512 23.6498 14.4097
1 22.9232 22.846 14.3995
1 24.5244 23.6504 15.2043
1 25.3181 22.8567 15.2043
1 25.3082 23.6623 14.4095
1 24.5283 22.8267 14.3944
1 26.1118 23.6504 15.2043
1 26.9055 22.8567 15.2043
1 26.8868 23.639 14.3901
1 26.0965 22.8543 14.4045
1 27.6992 23.6504 15.2043
1 28.4929 22.8567 15.2043
1 28.4969 23.623 14.4123
1 27.6879 22.864 14.3847
1 29.2866 23.6504 15.2043
1 0.08031 22.8567 15.2043
1 0.0861279 23.6436 14.4078
1 29.3064 22.8493 14.4071
1 0.874011 23.6504 15.2043
1 1.66771 22.8567 15.2043
1 1.68925 23.623 14.4051
1 0.887461 22.8448 14.4353
1 2.46141 23.6504 15.2043
1 3.25511 22.8567 15.2043
1 3.25055 23.6399 14.406
1 2.46929 22.8223 14.4228
1 4.04881 23.6504 15.2043
1 4.84251 22.8567 15.2043
1 4.83046 23.6621 14.4122
1 4.03047 22.8625 14.4183
1 5.63621 23.6504 15.2043
1 6.42991 22.8567 15.2043
1 6.4228 23.6488 14.4104
1 5.61857 22.8248 14.4354
1 7.22361 23.6504 15.2043
1 8.01732 22.8567 15.2043
1 7.9866 23.6312 14.3998
1 7.21773 22.859 14.4099
1 8.81102 23.6504 15.2043
1 9.60472 22.8567 15.2043
1 9.58645 23.6495 14.4221
1 8.7868 22.8697 14.4195
1 10.3984 23.6504 15.2043
1 11.1921 22.8567 15.2043
1 11.1845 23.6517 14.4064
1 10.3847 22.8601 14.4331
1 11.9858 23.6504 15.2043
1 12.7795 22.8567 15.2043
1 12.7942 23.6636 14.3882
1 11.9943 22.8871 14.394
1 13.5732 23.6504 15.2043
1 14.3669 22.8567 15.2043
1 14.314 23.6301 14.3718
1 13.5923 22.8345 14.4035
1 15 22.063 15.2043
1 15.7937 21.2693 15.2043
1 15.8091 22.0625 14.416
1 15.06 21.2561 14.394
1 16.5874 22.063 15.2043
1 17.3811 21.2693 15.2043
1 17.404 22.0844 14.4074
1 16.5803 21.2924 14.4023
1 18.1748 22.063 15.2043
1 18.9685 21.2693 15.2043
1 19.0028 22.0824 14.4078
1 18.2029 21.29 14.4168
1 19.7622 22.063 15.2043
1 20.5559 21.2693 15.2043
1 20.5571 22.0566 14.4101
1 19.776 21.2997 14.4179
1 21.3496 22.063 15.2043
1 22.1433 21.2693 15.2043
1 22.1465 22.1011 14.4181
1 21.3628 21.2572 14.4204
1 22.937 22.063 15.2043
1 23.7307 21.2693 15.2043
1 23.7426 22.0527 14.3954
1 22.9439 21.2794 14.4129
1 24.5244 22.063 15.2043
1 25.3181 21.2693 15.2043
1 25.3072 22.0634 14.3965
1 24.5459 21.2566 14.3777
1 26.1118 22.063 15.2043
1 26.9055 21.2693 15.2043
1 26.9135 22.0733 14.4324
1 26.1265 21.2727 14.4109
1 27.6992 22.063 15.2043
1 28.4929 21.2693 15.2043
1 28.4917 22.0596 14.4135
1 27.7006 21.2806 14.4083
1 29.2866 22.063 15.2043
1 0.08031 21.2693 15.2043
1 0.0804259 22.0463 14.4313
1 29.27 21.2587 14.4113
1 0.874011 22.063 15.2043
1 1.66771 21.2693 15.2043
1 1.65919 22.0415 14.4138
1 0.882805 21.2637 14.4129
1 2.46141 22.063 15.2043
1 3.25511 21.2693 15.2043
1 3.27938 22.0641 14.3945
1 2.4705 21.2836 14.3975
1 4.04881 22.063 15.2043
1 4.84251 21.2693 15.2043
1 4.85731 22.0597 14.4003
1 4.05118 21.2624 14.4063
1 5.63621 22.063 15.2043
1 6.42991 21.2693 15.2043
1 6.45514 22.0563 14.4128
1 5.62158 21.257 14.4273
1 7.22361 22.063 15.2043
1 8.01732 21.2693 15.2043
1 8.01415 22.062 14.4391
1 7.22973 21.2691 14.4201
1 8.81102 22.063 15.2043
1 9.60472 21.2693 15.2043
1 9.57708 22.0458 14.4204
1 8.78331 21.2407 14.407
1 10.3984 22.063 15.2043
1 11.1921 21.2693 15.2043
1 11.1967 22.0588 14.4424
1 10.415 21.2764 14.4291
1 11.9858 22.063 15.2043
1 12.7795 21.2693 15.2043
1 12.7712 22.0514 14.4067
1 11.9918 21.2758 14.401
1 13.5732 22.063 15.2043
1 14.3669 21.2693 15.2043
1 14.3094 22.0532 14.3528
1 13.5833 21.2665 14.402
1 15 20.4756 15.2043
1 15.7937 19.6819 15.2043
1 15.8209 20.4682 14.3995
1 15.0534 19.6924 14.3905
1 16.5874 20.4756 15.2043
1 17.3811 19.6819 15.2043
1 17.3928 20.4754 14.3969
1 16.5921 19.7072 14.4021
1 18.1748 20.4756 15.2043
1 18.9685 19.6819 15.2043
1 18.9664 20.4979 14.3965
1 18.1822 19.6837 14.4055
1 19.7622 20.4756 15.2043
1 20.5559 19.6819 15.2043
1 20.5503 20.467 14.4238
1 19.7408 19.6625 14.4094
1 21.3496 20.4756 15.2043
1 22.1433 19.6819 15.2043
1 22.147 20.4844 14.4037
1 21.3516 19.6664 14.4121
1 22.937 20.4756 15.2043
1 23.7307 19.6819 15.2043
1 23.73 20.4921 14.4083
1 22.9555 19.6838 14.4243
1 24.5244 20.4756 15.2043
1 25.3181 19.6819 15.2043
1 25.3179 20.5022 14.4361
1 24.5273 19.6964 14.4156
1 26.1118 20.4756 15.2043
1 26.9055 19.6819 15.2043
1 26.9305 20.4846 14.4126
1 26.1217 19.7 14.4254
1 27.6992 20.4756 15.2043
1 28.4929 19.6819 15.2043
1 28.4749 20.4704 14.424
1 27.7373 19.6807 14.4242
1 29.2866 20.4756 15.2043
1 0.08031 19.6819 15.2043
1 0.0542529 20.4696 14.4205
1 29.2611 19.6766 14.398
1 0.874011 20.4756 15.2043
1 1.66771 19.6819 15.2043
1 1.66875 20.4804 14.4087
1 0.87196 19.6826 14.4329
1 2.46141 20.4756 15.2043
1 3.25511 19.6819 15.2043
1 3.26619 20.4777 14.3921
1 2.46982 19.6962 14.4116
1 4.04881 20.4756 15.2043
1 4.84251 19.6819 15.2043
1 4.83045 20.4419 14.4314
1 4.05927 19.6468 14.3713
1 5.63621 20.4756 15.2043
1 6.42991 19.6819 15.2043
1 6.4527 20.4965 14.4351
1 5.65432 19.6967 14.3926
1 7.22361 20.4756 15.2043
1 8.01732 19.6819 15.2043
1 8.03429 20.4527 14.4147
1 7.20266 19.6556 14.4129
1 8.81102 20.4756 15.2043
1 9.60472 19.6819 15.2043
1 9.60878 20.4849 14.4186
1 8.82481 19.6642 14.4081
1 10.3984 20.4756 15.2043
1 11.1921 19.6819 15.2043
1 11.1698 20.4995 14.3973
1 10.3978 19.6907 14.3936
1 11.9858 20.4756 15.2043
1 12.7795 19.6819 15.2043
1 12.7878 20.4795 14.4011
1 11.9824 19.7071 14.4006
1 13.5732 20.4756 15.2043
1 14.3669 19.6819 15.2043
1 14.3176 20.4872 14.3634
1 13.515 19.6743 14.4009
1 15 18.8882 15.2043
1 15.7937 18.0945 15.2043
1 15.8272 18.9092 14.3961
1 15.0657 18.1076 14.3672
1 16.5874 18.8882 15.2043
1 17.3811 18.0945 15.2043
1 17.364 18.8821 14.407
1 16.6011 18.1066 14.4232
1 18.1748 18.8882 15.2043
1 18.9685 18.0945 15.2043
1 18.9525 18.9019 14.4128
1 18.1476 18.0804 14.4143
1 19.7622 18.8882 15.2043
1 20.5559 18.0945 15.2043
1 20.5617 18.8783 14.4032
1 19.7498 18.0889 14.414
1 21.3496 18.8882 15.2043
1 22.1433 18.0945 15.2043
1 22.152 18.8884 14.4096
1 21.3504 18.0991 14.4
1 22.937 18.8882 15.2043
1 23.7307 18.0945 15.2043
1 23.7257 18.8812 14.3891
1 22.9339 18.079 14.4162
1 24.5244 18.8882 15.2043
1 25.3181 18.0945 15.2043
1 25.3426 18.9083 14.4028
1 24.5595 18.0714 14.3928
1 26.1118 18.8882 15.2043
1 26.9055 18.0945 15.2043
1 26.8815 18.9174 14.4077
1 26.0998 18.0909 14.4325
1 27.6992 18.8882 15.2043
1 28.4929 18.0945 15.2043
1 28.5132 18.8856 14.3784
1 27.6562 18.0992 14.4045
1 29.2866 18.8882 15.2043
1 0.08031 18.0945 15.2043
1 0.0586766 18.8906 14.3713
1 29.3183 18.0747 14.4034
1 0.874011 18.8882 15.2043
1 1.66771 18.0945 15.2043
1 1.66553 18.9028 14.4231
1 0.895733 18.1068 14.4256
1 2.46141 18.8882 15.2043
1 3.25511 18.0945 15.2043
1 3.27592 18.8987 14.3939
1 2.45125 18.1169 14.4025
1 4.04881 18.8882 15.2043
1 4.84251 18.0945 15.2043
1 4.85343 18.8967 14.4017
1 4.0666 18.1037 14.4108
1 5.63621 18.8882 15.2043
1 6.42991 18.0945 15.2043
1 6.43072 18.8609 14.3941
1 5.59906 18.0716 14.4106
1 7.22361 18.8882 15.2043
1 8.01732 18.0945 15.2043
1 8.00348 18.8802 14.4155
1 7.2142 18.0757 14.4167
1 8.81102 18.8882 15.2043
1 9.60472 18.0945 15.2043
1 9.59304 18.8686 14.4026
1 8.79331 18.0893 14.4007
1 10.3984 18.8882 15.2043
1 11.1921 18.0945 15.2043
1 11.1667 18.9197 14.4062
1 10.3998 18.103 14.4309
1 11.9858 18.8882 15.2043
1 12.7795 18.0945 15.2043
1 12.7508 18.8783 14.4062
1 11.9654 18.1133 14.4205
1 13.5732 18.8882 15.2043
1 14.3669 18.0945 15.2043
1 14.2988 18.907 14.3619
1 13.5176 18.0999 14.3837
1 15 17.3008 15.2043
1 15.7937 16.5071 15.2043
1 15.8319 17.2944 14.3954
1 15.0684 16.4869 14.3706
1 16.5874 17.3008 15.2043
1 17.3811 16.5071 15.2043
1 17.359 17.2996 14.4035
1 16.5911 16.4802 14.4051
1 18.1748 17.3008 15.2043
1 18.9685 16.5071 15.2043
1 18.966 17.2873 14.4329
1 18.1864 16.534 14.4307
1 19.7622 17.3008 15.2043
1 20.5559 16.5071 15.2043
1 20.5466 17.3319 14.4115
1 19.7809 16.4923 14.4037
1 21.3496 17.3008 15.2043
1 22.1433 16.5071 15.2043
1 22.1467 17.2979 14.4462
1 21.3385 16.5041 14.3845
1 22.937 17.3008 15.2043
1 23.7307 16.5071 15.2043
1 23.754 17.3069 14.4044
1 22.9575 16.5244 14.4072
1 24.5244 17.3008 15.2043
1 25.3181 16.5071 15.2043
1 25.3386 17.2745 14.4088
1 24.5076 16.4877 14.4016
1 26.1118 17.3008 15.2043
1 26.9055 16.5071 15.2043
1 26.9093 17.2967 14.4058
1 26.1197 16.5119 14.414
1 27.6992 17.3008 15.2043
1 28.4929 16.5071 15.2043
1 28.5263 17.3083 14.4286
1 27.6993 16.4934 14.4297
1 29.2866 17.3008 15.2043
1 0.08031 16.5071 15.2043
1 0.0739455 17.2956 14.3969
1 29.3078 16.4819 14.4228
1 0.874011 17.3008 15.2043
1 1.66771 16.5071 15.2043
1 1.65108 17.2794 14.4026
1 0.856385 16.503 14.4175
1 2.46141 17.3008 15.2043
1 3.25511 16.5071 15.2043
1 3.25977 17.3107 14.4174
1 2.48644 16.4873 14.4102
1 4.04881 17.3008 15.2043
1 4.84251 16.5071 15.2043
1 4.83827 17.3306 14.4107
1 4.01874 16.4957 14.4241
1 5.63621 17.3008 15.2043
1 6.42991 16.5071 15.2043
1 6.4309 17.3097 14.4279
1 5.63773 16.5059 14.3818
1 7.22361 17.3008 15.2043
1 8.01732 16.5071 15.2043
1 7.99763 17.3116 14.3969
1 7.22407 16.5048 14.4128
1 8.81102 17.3008 15.2043
1 9.60472 16.5071 15.2043
1 9.58516 17.3235 14.4109
1 8.79859 16.5068 14.4192
1 10.3984 17.3008 15.2043
1 11.1921 16.5071 15.2043
1 11.1725 17.3165 14.4033
1 10.3868 16.5017 14.4164
1 11.9858 17.3008 15.2043
1 12.7795 16.5071 15.2043
1 12.7516 17.319 14.402
1 11.9761 16.517 14.3971
1 13.5732 17.3008 15.2043
1 14.3669 16.5071 15.2043
1 14.31 17.2993 14.3869
1 13.5404 16.5371 14.3857
1 15 15.7134 15.2043
1 15.7937 14.9197 15.2043
1 15.839 15.6818 14.3907
1 15.0567 14.925 14.3759
1 16.5874 15.7134 15.2043
1 17.3811 14.9197 15.2043
1 17.4151 15.675 14.4228
1 16.5977 14.9148 14.428
1 18.1748 15.7134 15.2043
1 18.9685 14.9197 15.2043
1 18.9722 15.7143 14.4112
1 18.1745 14.8998 14.4542
1 19.7622 15.7134 15.2043
1 20.5559 14.9197 15.2043
1 20.5606 15.7091 14.4167
1 19.7538 14.9416 14.401
1 21.3496 15.7134 15.2043
1 22.1433 14.9197 15.2043
1 22.141 15.6999 14.4095
1 21.3362 14.929 14.4197
1 22.937 15.7134 15.2043
1 23.7307 14.9197 15.2043
1 23.7239 15.7234 14.4039
1 22.9286 14.931 14.4198
1 24.5244 15.7134 15.2043
1 25.3181 14.9197 15.2043
1 25.3032 15.6933 14.4001
1 24.5332 14.9309 14.407
1 26.1118 15.7134 15.2043
1 26.9055 14.9197 15.2043
1 26.9049 15.7053 14.4354
1 26.1043 14.9145 14.4058
1 27.6992 15.7134 15.2043
1 28.4929 14.9197 15.2043
1 28.4944 15.7116 14.4142
1 27.7134 14.9215 14.4218
1 29.2866 15.7134 15.2043
1 0.08031 14.9197 15.2043
1 0.089926 15.7025 14.3907
1 29.2951 14.9239 14.4277
1 0.874011 15.7134 15.2043
1 1.66771 14.9197 15.2043
1 1.65616 15.7526 14.4027
1 0.879449 14.913 14.4009
1 2.46141 15.7134 15.2043
1 3.25511 14.9197 15.2043
1 3.27326 15.6979 14.4107
1 2.45715 14.9302 14.4063
1 4.04881 15.7134 15.2043
1 4.84251 14.9197 15.2043
1 4.84401 15.7106 14.4069
1 4.06493 14.9128 14.4298
1 5.63621 15.7134 15.2043
1 6.42991 14.9197 15.2043
1 6.43259 15.722 14.3961
1 5.63471 14.9167 14.4068
1 7.22361 15.7134 15.2043
1 8.01732 14.9197 15.2043
1 8.0161 15.6995 14.392
1 7.2099 14.91 14.4008
1 8.81102 15.7134 15.2043
1 9.60472 14.9197 15.2043
1 9.60082 15.7213 14.4028
1 8.83347 14.9285 14.4105
1 10.3984 15.7134 15.2043
1 11.1921 14.9197 15.2043
1 11.1818 15.717 14.4253
1 10.4047 14.923 14.4235
1 11.9858 15.7134 15.2043
1 12.7795 14.9197 15.2043
1 12.759 15.742 14.3988
1 11.9609 14.942 14.4381
1 13.5732 15.7134 15.2043
1 14.3669 14.9197 15.2043
1 14.3135 15.7333 14.3859
1 13.5446 14.9488 14.3972
1 15 14.126 15.2043
1 15.7937 13.3323 15.2043
1 15.8216 14.1183 14.3987
1 15.0621 13.3046 14.3808
1 16.5874 14.126 15.2043
1 17.3811 13.3323 15.2043
1 17.3775 14.1175 14.4376
1 16.599 13.3239 14.4008
1 18.1748 14.126 15.2043
1 18.9685 13.3323 15.2043
1 18.9735 14.1107 14.4415
1 18.193 13.3347 14.3997
1 19.7622 14.126 15.2043
1 20.5559 13.3323 15.2043
1 20.5455 14.1444 14.4031
1 19.7661 13.3228 14.4323
1 21.3496 14.126 15.2043
1 22.1433 13.3323 15.2043
1 22.131 14.1075 14.4283
1 21.3223 13.3375 14.4197
1 22.937 14.126 15.2043
1 23.7307 13.3323 15.2043
1 23.7157 14.1119 14.4121
1 22.9194 13.3122 14.4211
1 24.5244 14.126 15.2043
1 25.3181 13.3323 15.2043
1 25.3121 14.138 14.4183
1 24.5286 13.327 14.4022
1 26.1118 14.126 15.2043
1 26.9055 13.3323 15.2043
1 26.9102 14.1416 14.418
1 26.1235 13.3542 14.4192
1 27.6992 14.126 15.2043
1 28.4929 13.3323 15.2043
1 28.4862 14.1292 14.4361
1 27.7114 13.3445 14.4061
1 29.2866 14.126 15.2043
1 0.08031 13.3323 15.2043
1 0.0899632 14.1211 14.3867
1 29.3022 13.329 14.3772
1 0.874011 14.126 15.2043
1 1.66771 13.3323 15.2043
1 1.66988 14.1141 14.4023
1 0.863929 13.3303 14.4058
1 2.46141 14.126 15.2043
1 3.25511 13.3323 15.2043
1 3.25921 14.1444 14.415
1 2.44708 13.3312 14.4004
1 4.04881 14.126 15.2043
1 4.84251 13.3323 15.2043
1 4.84352 14.1124 14.4082
1 4.04971 13.3156 14.408
1 5.63621 14.126 15.2043
1 6.42991 13.3323 15.2043
1 6.40621 14.1434 14.4037
1 5.63657 13.3382 14.4304
1 7.22361 14.126 15.2043
1 8.01732 13.3323 15.2043
1 8.02702 14.1399 14.4079
1 7.19025 13.3512 14.4052
1 8.81102 14.126 15.2043
1 9.60472 13.3323 15.2043
1 9.62003 14.1338 14.4245
1 8.81343 13.3573 14.417
1 10.3984 14.126 15.2043
1 11.1921 13.3323 15.2043
1 11.1565 14.1408 14.4235
1 10.4152 13.3465 14.4056
1 11.9858 14.126 15.2043
1 12.7795 13.3323 15.2043
1 12.7602 14.1265 14.4378
1 11.9716 13.3692 14.3681
1 13.5732 14.126 15.2043
1 14.3669 13.3323 15.2043
1 14.2714 14.124 14.3522
1 13.5436 13.3417 14.3975
1 15 12.5386 15.2043
1 15.7937 11.7449 15.2043
1 15.8235 12.5067 14.3839
1 15.0738 11.7468 14.3668
1 16.5874 12.5386 15.2043
1 17.3811 11.7449 15.2043
1 17.4156 12.5438 14.3977
1 16.6249 11.7301 14.3887
1 18.1748 12.5386 15.2043
1 18.9685 11.7449 15.2043
1 18.9876 12.5586 14.3837
1 18.1787 11.7567 14.4138
1 19.7622 12.5386 15.2043
1 20.5559 11.7449 15.2043
1 20.5764 12.5432 14.4063
1 19.7737 11.7562 14.4252
1 21.3496 12.5386 15.2043
1 22.1433 11.7449 15.2043
1 22.1207 12.5349 14.4084
1 21.3465 11.7413 14.4127
1 22.937 12.5386 15.2043
1 23.7307 11.7449 15.2043
1 23.7564 12.5322 14.4117
1 22.9268 11.7713 14.3947
1 24.5244 12.5386 15.2043
1 25.3181 11.7449 15.2043
1 25.3301 12.5296 14.4147
1 24.5155 11.7445 14.4242
1 26.1118 12.5386 15.2043
1 26.9055 11.7449 15.2043
1 26.8967 12.5445 14.4144
1 26.1026 11.7471 14.4018
1 27.6992 12.5386 15.2043
1 28.4929 11.7449 15.2043
1 28.4973 12.5536 14.4223
1 27.7139 11.7262 14.4153
1 29.2866 12.5386 15.2043
1 0.08031 11.7449 15.2043
1 0.0950867 12.5423 14.4141
1 29.3057 11.7188 14.4152
1 0.874011 12.5386 15.2043
1 1.66771 11.7449 15.2043
1 1.68684 12.5243 14.4196
1 0.888498 11.7576 14.4246
1 2.46141 12.5386 15.2043
1 3.25511 11.7449 15.2043
1 3.24024 12.5388 14.4093
1 2.46587 11.7318 14.3987
1 4.04881 12.5386 15.2043
1 4.84251 11.7449 15.2043
1 4.86321 12.524 14.3907
1 4.0597 11.7217 14.4272
1 5.63621 12.5386 15.2043
1 6.42991 11.7449 15.2043
1 6.41785 12.5402 14.4024
1 5.64537 11.7237 14.4123
1 7.22361 12.5386 15.2043
1 8.01732 11.7449 15.2043
1 8.02354 12.5561 14.4137
1 7.23321 11.7374 14.3892
1 8.81102 12.5386 15.2043
1 9.60472 11.7449 15.2043
1 9.60749 12.5701 14.4392
1 8.81917 11.7707 14.4345
1 10.3984 12.5386 15.2043
1 11.1921 11.7449 15.2043
1 11.1976 12.5449 14.3905
1 10.3909 11.7488 14.4138
1 11.9858 12.5386 15.2043
1 12.7795 11.7449 15.2043
1 12.7761 12.5226 14.4164
1 11.9429 11.7589 14.403
1 13.5732 12.5386 15.2043
1 14.3669 11.7449 15.2043
1 14.2838 12.5573 14.3744
1 13.5269 11.7469 14.4156
1 15 10.9512 15.2043
1 15.7937 10.1575 15.2043
1 15.8163 10.943 14.4204
1 15.068 10.1482 14.3468
1 16.5874 10.9512 15.2043
1 17.3811 10.1575 15.2043
1 17.3973 10.9405 14.4261
1 16.6011 10.1367 14.4096
1 18.1748 10.9512 15.2043
1 18.9685 10.1575 15.2043
1 19.0008 10.951 14.4144
1 18.1935 10.1607 14.426
1 19.7622 10.9512 15.2043
1 20.5559 10.1575 15.2043
1 20.5685 10.9754 14.4149
1 19.7605 10.1555 14.412
1 21.3496 10.9512 15.2043
1 22.1433 10.1575 15.2043
1 22.1283 10.9451 14.4155
1 21.342 10.1622 14.4168
1 22.937 10.9512 15.2043
1 23.7307 10.1575 15.2043
1 23.724 10.947 14.3977
1 22.9167 10.1428 14.4235
1 24.5244 10.9512 15.2043
1 25.3181 10.1575 15.2043
1 25.2922 10.9676 14.4227
1 24.5403 10.1447 14.4134
1 26.1118 10.9512 15.2043
1 26.9055 10.1575 15.2043
1 26.885 10.934 14.3947
1 26.0874 10.1395 14.4103
1 27.6992 10.9512 15.2043
1 28.4929 10.1575 15.2043
1 28.4881 10.9318 14.4102
1 27.6992 10.1751 14.3813
1 29.2866 10.9512 15.2043
1 0.08031 10.1575 15.2043
1 0.0865124 10.9115 14.4201
1 29.2917 10.1721 14.4071
1 0.874011 10.9512 15.2043
1 1.66771 10.1575 15.2043
1 1.6763 10.9531 14.4146
1 0.877038 10.15 14.3992
1 2.46141 10.9512 15.2043
1 3.25511 10.1575 15.2043
1 3.26404 10.9651 14.4048
1 2.45309 10.1856 14.4234
1 4.04881 10.9512 15.2043
1 4.84251 10.1575 15.2043
1 4.84156 10.9484 14.4509
1 4.04728 10.1779 14.4088
1 5.63621 10.9512 15.2043
1 6.42991 10.1575 15.2043
1 6.45191 10.9423 14.4231
1 5.64369 10.1551 14.4167
1 7.22361 10.9512 15.2043
1 8.01732 10.1575 15.2043
1 8.02458 10.925 14.4008
1 7.22825 10.1488 14.4138
1 8.81102 10.9512 15.2043
1 9.60472 10.1575 15.2043
1 9.61041 10.9703 14.4115
1 8.81978 10.1342 14.4017
1 10.3984 10.9512 15.2043
1 11.1921 10.1575 15.2043
1 11.1828 10.95 14.4104
1 10.3826 10.1589 14.4097
1 11.9858 10.9512 15.2043
1 12.7795 10.1575 15.2043
1 12.7268 10.9671 14.417
1 11.9492 10.1558 14.4205
1 13.5732 10.9512 15.2043
1 14.3669 10.1575 15.2043
1 14.2883 10.989 14.3591
1 13.5514 10.1678 14.4205
1 15 9.36379 15.2043
1 15.7937 8.57009 15.2043
1 15.8154 9.3627 14.4087
1 15.0548 8.55803 14.3952
1 16.5874 9.36379 15.2043
1 17.3811 8.57009 15.2043
1 17.4077 9.34442 14.3752
1 16.6114 8.55607 14.3845
1 18.1748 9.36379 15.2043
1 18.9685 8.57009 15.2043
1 18.9909 9.34803 14.4212
1 18.1658 8.54402 14.4139
1 19.7622 9.36379 15.2043
1 20.5559 8.57009 15.2043
1 20.5559 9.33728 14.4088
1 19.7502 8.55685 14.4103
1 21.3496 9.36379 15.2043
1 22.1433 8.57009 15.2043
1 22.1382 9.35981 14.4106
1 21.3586 8.57069 14.4224
1 22.937 9.36379 15.2043
1 23.7307 8.57009 15.2043
1 23.709 9.35165 14.4217
1 22.9004 8.54186 14.4267
1 24.5244 9.36379 15.2043
1 25.3181 8.57009 15.2043
1 25.3109 9.32662 14.4251
1 24.5094 8.57581 14.4329
1 26.1118 9.36379 15.2043
1 26.9055 8.57009 15.2043
1 26.9072 9.37608 14.403
1 26.1219 8.57765 14.4173
1 27.6992 9.36379 15.2043
1 28.4929 8.57009 15.2043
1 28.502 9.36054 14.4145
1 27.6936 8.56568 14.3967
1 29.2866 9.36379 15.2043
1 0.08031 8.57009 15.2043
1 0.0912449 9.37459 14.3922
1 29.2918 8.54004 14.3848
1 0.874011 9.36379 15.2043
1 1.66771 8.57009 15.2043
1 1.69303 9.37667 14.3827
1 0.882211 8.56923 14.3955
1 2.46141 9.36379 15.2043
1 3.25511 8.57009 15.2043
1 3.2348 9.37362 14.4307
1 2.45394 8.57855 14.4365
1 4.04881 9.36379 15.2043
1 4.84251 8.57009 15.2043
1 4.82693 9.3821 14.4218
1 4.04649 8.56927 14.3863
1 5.63621 9.36379 15.2043
1 6.42991 8.57009 15.2043
1 6.41222 9.37326 14.3889
1 5.61456 8.56658 14.4066
1 7.22361 9.36379 15.2043
1 8.01732 8.57009 15.2043
1 8.00945 9.35796 14.3844
1 7.22438 8.5951 14.4041
1 8.81102 9.36379 15.2043
1 9.60472 8.57009 15.2043
1 9.59913 9.37983 14.4207
1 8.78853 8.55201 14.4177
1 10.3984 9.36379 15.2043
1 11.1921 8.57009 15.2043
1 11.1691 9.37452 14.3969
1 10.3958 8.56052 14.4015
1 11.9858 9.36379 15.2043
1 12.7795 8.57009 15.2043
1 12.7722 9.35738 14.4087
1 11.9465 8.57792 14.4261
1 13.5732 9.36379 15.2043
1 14.3669 8.57009 15.2043
1 14.3074 9.40658 14.4133
1 13.5508 8.59898 14.4316
1 15 7.77639 15.2043
1 15.7937 6.98268 15.2043
1 15.8062 7.80035 14.4077
1 15.0408 6.99603 14.3817
1 16.5874 7.77639 15.2043
1 17.3811 6.98268 15.2043
1 17.3985 7.7733 14.3769
1 16.608 6.96403 14.3762
1 18.1748 7.77639 15.2043
1 18.9685 6.98268 15.2043
1 18.9753 7.78174 14.403
1 18.1979 6.99863 14.4049
1 19.7622 7.77639 15.2043
1 20.5559 6.98268 15.2043
1 20.562 7.78345 14.3991
1 19.7497 6.9967 14.4594
1 21.3496 7.77639 15.2043
1 22.1433 6.98268 15.2043
1 22.1246 7.76792 14.3801
1 21.3494 6.99152 14.4219
1 22.937 7.77639 15.2043
1 23.7307 6.98268 15.2043
1 23.7216 7.75853 14.4162
1 22.9286 6.99615 14.4128
1 24.5244 7.77639 15.2043
1 25.3181 6.98268 15.2043
1 25.304 7.76049 14.4038
1 24.5338 6.95748 14.4304
1 26.1118 7.77639 15.2043
1 26.9055 6.98268 15.2043
1 26.8853 7.78218 14.4154
1 26.1334 6.98601 14.4014
1 27.6992 7.77639 15.2043
1 28.4929 6.98268 15.2043
1 28.4849 7.78584 14.4379
1 27.6975 6.96999 14.4041
1 29.2866 7.77639 15.2043
1 0.08031 6.98268 15.2043
1 0.0975769 7.78398 14.4067
1 29.2642 6.99264 14.4353
1 0.874011 7.77639 15.2043
1 1.66771 6.98268 15.2043
1 1.67797 7.77009 14.4133
1 0.879179 6.96645 14.392
1 2.46141 7.77639 15.2043
1 3.25511 6.98268 15.2043
1 3.25182 7.79344 14.4377
1 2.47513 6.96009 14.3928
1 4.04881 7.77639 15.2043
1 4.84251 6.98268 15.2043
1 4.81984 7.77333 14.4346
1 4.0208 6.96977 14.3876
1 5.63621 7.77639 15.2043
1 6.42991 6.98268 15.2043
1 6.40497 7.76327 14.4039
1 5.62138 6.94616 14.4089
1 7.22361 7.77639 15.2043
1 8.01732 6.98268 15.2043
1 7.99723 7.78815 14.4175
1 7.22103 6.96309 14.417
1 8.81102 7.77639 15.2043
1 9.60472 6.98268 15.2043
1 9.59685 7.78251 14.4169
1 8.78086 6.98752 14.3932
1 10.3984 7.77639 15.2043
1 11.1921 6.98268 15.2043
1 11.191 7.78704 14.4244
1 10.3646 6.99491 14.4241
1 11.9858 7.77639 15.2043
1 12.7795 6.98268 15.2043
1 12.7661 7.79496 14.4192
1 11.9836 7.00256 14.3879
1 13.5732 7.77639 15.2043
1 14.3669 6.98268 15.2043
1 14.2672 7.79991 14.401
1 13.5194 6.98633 14.4358
1 15 6.18898 15.2043
1 15.7937 5.39528 15.2043
1 15.8191 6.20014 14.3979
1 15.0531 5.41343 14.391
1 16.5874 6.18898 15.2043
1 17.3811 5.39528 15.2043
1 17.4052 6.20428 14.409
1 16.5955 5.41285 14.397
1 18.1748 6.18898 15.2043
1 18.9685 5.39528 15.2043
1 18.956 6.19041 14.4034
1 18.1836 5.38574 14.4429
1 19.7622 6.18898 15.2043
1 20.5559 5.39528 15.2043
1 20.5691 6.18984 14.41
1 19.7503 5.39209 14.4064
1 21.3496 6.18898 15.2043
1 22.1433 5.39528 15.2043
1 22.1309 6.19514 14.4123