9376
Atoms. Timestep: 4000000
1 0.015 3.55271e-15 10.6234
1 0.808701 29.2063 10.6234
1 0.8495 29.9353 9.7834
1 0.10455 29.183 9.77759
1 1.6024 3.55271e-15 10.6234
1 2.3961 29.2063 10.6234
1 2.41489 29.915 9.78078
1 1.61869 29.1671 9.85247
1 3.1898 3.55271e-15 10.6234
1 3.9835 29.2063 10.6234
1 4.0026 29.9147 9.77475
1 3.16542 29.1969 9.80697
1 4.7772 3.55271e-15 10.6234
1 5.5709 29.2063 10.6234
1 5.58965 29.9256 9.81479
1 4.78828 29.1919 9.81483
1 6.3646 3.55271e-15 10.6234
1 7.1583 29.2063 10.6234
1 7.17055 29.9242 9.78966
1 6.38183 29.1649 9.81224
1 7.95201 3.55271e-15 10.6234
1 8.74571 29.2063 10.6234
1 8.74472 29.9354 9.79889
1 7.95803 29.1599 9.84142
1 9.53941 3.55271e-15 10.6234
1 10.3331 29.2063 10.6234
1 10.3175 29.9344 9.76828
1 9.52017 29.19 9.8436
1 11.1268 3.55271e-15 10.6234
1 11.9205 29.2063 10.6234
1 11.92 29.9465 9.78257
1 11.1001 29.186 9.81882
1 12.7142 3.55271e-15 10.6234
1 13.5079 29.2063 10.6234
1 13.512 29.9485 9.78371
1 12.7148 29.1995 9.82011
1 14.3016 3.55271e-15 10.6234
1 15.0953 29.2063 10.6234
1 15.106 29.936 9.80845
1 14.3111 29.1795 9.82597
1 15.889 3.55271e-15 10.6234
1 16.6827 29.2063 10.6234
1 16.6906 29.9196 9.79541
1 15.8928 29.1531 9.78716
1 17.4764 3.55271e-15 10.6234
1 18.2701 29.2063 10.6234
1 18.2876 29.9227 9.79835
1 17.4823 29.1652 9.81916
1 19.0638 3.55271e-15 10.6234
1 19.8575 29.2063 10.6234
1 19.8531 29.9337 9.79511
1 19.0545 29.1812 9.80304
1 20.6512 3.55271e-15 10.6234
1 21.4449 29.2063 10.6234
1 21.4644 29.9363 9.8078
1 20.665 29.1801 9.83032
1 22.2386 3.55271e-15 10.6234
1 23.0323 29.2063 10.6234
1 23.0225 29.9258 9.80411
1 22.2487 29.1785 9.80749
1 23.826 3.55271e-15 10.6234
1 24.6197 29.2063 10.6234
1 24.6288 29.9191 9.78728
1 23.83 29.1773 9.82038
1 25.4134 3.55271e-15 10.6234
1 26.2071 29.2063 10.6234
1 26.2168 29.936 9.78193
1 25.3968 29.1557 9.8075
1 27.0008 3.55271e-15 10.6234
1 27.7945 29.2063 10.6234
1 27.7891 29.9074 9.77778
1 26.9914 29.1798 9.83108
1 28.5882 3.55271e-15 10.6234
1 29.3819 29.2063 10.6234
1 29.3472 29.9324 9.76885
1 28.5692 29.1992 9.80844
1 0.015 28.4126 10.6234
1 0.808701 27.6189 10.6234
1 0.839788 28.3815 9.84822
1 0.104682 27.5907 9.78969
1 1.6024 28.4126 10.6234
1 2.3961 27.6189 10.6234
1 2.42171 28.3921 9.82718
1 1.61505 27.6313 9.83829
1 3.1898 28.4126 10.6234
1 3.9835 27.6189 10.6234
1 3.97452 28.3844 9.81627
1 3.21477 27.6209 9.81148
1 4.7772 28.4126 10.6234
1 5.5709 27.6189 10.6234
1 5.56946 28.3905 9.85982
1 4.77998 27.5846 9.84378
1 6.3646 28.4126 10.6234
1 7.1583 27.6189 10.6234
1 7.15466 28.3999 9.82292
1 6.36849 27.62 9.84349
1 7.95201 28.4126 10.6234
1 8.74571 27.6189 10.6234
1 8.74669 28.3987 9.83539
1 7.96314 27.6228 9.84049
1 9.53941 28.4126 10.6234
1 10.3331 27.6189 10.6234
1 10.3143 28.3878 9.82725
1 9.5436 27.6216 9.82644
1 11.1268 28.4126 10.6234
1 11.9205 27.6189 10.6234
1 11.9298 28.4137 9.80627
1 11.1475 27.5863 9.86838
1 12.7142 28.4126 10.6234
1 13.5079 27.6189 10.6234
1 13.4966 28.4003 9.83027
1 12.704 27.5989 9.81011
1 14.3016 28.4126 10.6234
1 15.0953 27.6189 10.6234
1 15.0979 28.4029 9.81529
1 14.3211 27.6094 9.84203
1 15.889 28.4126 10.6234
1 16.6827 27.6189 10.6234
1 16.6849 28.4121 9.82876
1 15.9154 27.6247 9.8365
1 17.4764 28.4126 10.6234
1 18.2701 27.6189 10.6234
1 18.287 28.3824 9.82796
1 17.4828 27.6052 9.83368
1 19.0638 28.4126 10.6234
1 19.8575 27.6189 10.6234
1 19.8577 28.4008 9.81442
1 19.0718 27.5809 9.83233
1 20.6512 28.4126 10.6234
1 21.4449 27.6189 10.6234
1 21.4422 28.3782 9.82667
1 20.6525 27.5887 9.83727
1 22.2386 28.4126 10.6234
1 23.0323 27.6189 10.6234
1 23.0295 28.3724 9.81156
1 22.237 27.6097 9.8191
1 23.826 28.4126 10.6234
1 24.6197 27.6189 10.6234
1 24.6119 28.4136 9.82159
1 23.8475 27.6165 9.84104
1 25.4134 28.4126 10.6234
1 26.2071 27.6189 10.6234
1 26.1742 28.393 9.85392
1 25.4081 27.643 9.8208
1 27.0008 28.4126 10.6234
1 27.7945 27.6189 10.6234
1 27.7947 28.4226 9.80568
1 26.9731 27.6235 9.81538
1 28.5882 28.4126 10.6234
1 29.3819 27.6189 10.6234
1 29.3515 28.3843 9.78524
1 28.5379 27.5885 9.8089
1 0.015 26.8252 10.6234
1 0.808701 26.0315 10.6234
1 0.828349 26.8568 9.80266
1 0.0640127 26.0261 9.80453
1 1.6024 26.8252 10.6234
1 2.3961 26.0315 10.6234
1 2.39072 26.8515 9.84091
1 1.59658 26.0696 9.82797
1 3.1898 26.8252 10.6234
1 3.9835 26.0315 10.6234
1 3.99103 26.8204 9.8478
1 3.19954 26.0323 9.83609
1 4.7772 26.8252 10.6234
1 5.5709 26.0315 10.6234
1 5.60723 26.8227 9.81415
1 4.76565 26.0077 9.80931
1 6.3646 26.8252 10.6234
1 7.1583 26.0315 10.6234
1 7.15671 26.8445 9.84096
1 6.33992 26.0404 9.80923
1 7.95201 26.8252 10.6234
1 8.74571 26.0315 10.6234
1 8.77545 26.8256 9.82122
1 7.94807 26.0365 9.82084
1 9.53941 26.8252 10.6234
1 10.3331 26.0315 10.6234
1 10.3183 26.8138 9.82656
1 9.54235 26.0069 9.84796
1 11.1268 26.8252 10.6234
1 11.9205 26.0315 10.6234
1 11.9272 26.809 9.83232
1 11.1415 26.0201 9.81328
1 12.7142 26.8252 10.6234
1 13.5079 26.0315 10.6234
1 13.4916 26.8253 9.8259
1 12.7271 26.0016 9.82899
1 14.3016 26.8252 10.6234
1 15.0953 26.0315 10.6234
1 15.1171 26.8278 9.83096
1 14.3117 26.0262 9.82336
1 15.889 26.8252 10.6234
1 16.6827 26.0315 10.6234
1 16.7101 26.8309 9.84862
1 15.9093 26.0264 9.82614
1 17.4764 26.8252 10.6234
1 18.2701 26.0315 10.6234
1 18.2928 26.7981 9.8464
1 17.4827 25.9943 9.85667
1 19.0638 26.8252 10.6234
1 19.8575 26.0315 10.6234
1 19.8472 26.81 9.83929
1 19.0491 26.0313 9.85009
1 20.6512 26.8252 10.6234
1 21.4449 26.0315 10.6234
1 21.4378 26.8247 9.81364
1 20.6601 26.0262 9.8308
1 22.2386 26.8252 10.6234
1 23.0323 26.0315 10.6234
1 23.0313 26.8052 9.86112
1 22.2415 26.0293 9.83085
1 23.826 26.8252 10.6234
1 24.6197 26.0315 10.6234
1 24.6023 26.8116 9.84497
1 23.8349 26.0181 9.84812
1 25.4134 26.8252 10.6234
1 26.2071 26.0315 10.6234
1 26.1815 26.8094 9.82515
1 25.4078 26.0392 9.86263
1 27.0008 26.8252 10.6234
1 27.7945 26.0315 10.6234
1 27.7561 26.7918 9.83504
1 26.9772 26.0286 9.81778
1 28.5882 26.8252 10.6234
1 29.3819 26.0315 10.6234
1 29.3177 26.8037 9.78063
1 28.5354 26.03 9.83674
1 0.015 25.2378 10.6234
1 0.808701 24.4441 10.6234
1 0.825952 25.2458 9.8227
1 0.0560436 24.4229 9.79856
1 1.6024 25.2378 10.6234
1 2.3961 24.4441 10.6234
1 2.41355 25.2446 9.82636
1 1.62521 24.4326 9.82366
1 3.1898 25.2378 10.6234
1 3.9835 24.4441 10.6234
1 3.99033 25.2555 9.82747
1 3.21536 24.4444 9.82987
1 4.7772 25.2378 10.6234
1 5.5709 24.4441 10.6234
1 5.57528 25.2352 9.83161
1 4.77007 24.4542 9.85034
1 6.3646 25.2378 10.6234
1 7.1583 24.4441 10.6234
1 7.15753 25.2544 9.83777
1 6.37964 24.4392 9.84898
1 7.95201 25.2378 10.6234
1 8.74571 24.4441 10.6234
1 8.75571 25.2404 9.81541
1 7.97028 24.4371 9.83699
1 9.53941 25.2378 10.6234
1 10.3331 24.4441 10.6234
1 10.3599 25.2276 9.82823
1 9.53592 24.4379 9.84399
1 11.1268 25.2378 10.6234
1 11.9205 24.4441 10.6234
1 11.925 25.2142 9.8231
1 11.1239 24.4274 9.81859
1 12.7142 25.2378 10.6234
1 13.5079 24.4441 10.6234
1 13.5187 25.2452 9.8337
1 12.7433 24.4133 9.82597
1 14.3016 25.2378 10.6234
1 15.0953 24.4441 10.6234
1 15.0948 25.2334 9.83174
1 14.2654 24.4519 9.82943
1 15.889 25.2378 10.6234
1 16.6827 24.4441 10.6234
1 16.6705 25.2402 9.85075
1 15.8843 24.4518 9.8364
1 17.4764 25.2378 10.6234
1 18.2701 24.4441 10.6234
1 18.2983 25.2447 9.82799
1 17.4838 24.4479 9.83396
1 19.0638 25.2378 10.6234
1 19.8575 24.4441 10.6234
1 19.8258 25.2307 9.81404
1 19.0419 24.434 9.8327
1 20.6512 25.2378 10.6234
1 21.4449 24.4441 10.6234
1 21.4233 25.2338 9.81624
1 20.6409 24.4469 9.8271
1 22.2386 25.2378 10.6234
1 23.0323 24.4441 10.6234
1 23.0432 25.2149 9.8192
1 22.242 24.4217 9.83455
1 23.826 25.2378 10.6234
1 24.6197 24.4441 10.6234
1 24.626 25.2514 9.81102
1 23.8472 24.4409 9.82067
1 25.4134 25.2378 10.6234
1 26.2071 24.4441 10.6234
1 26.1894 25.2552 9.81867
1 25.4064 24.475 9.79843
1 27.0008 25.2378 10.6234
1 27.7945 24.4441 10.6234
1 27.7693 25.2411 9.82547
1 26.9874 24.4299 9.82439
1 28.5882 25.2378 10.6234
1 29.3819 24.4441 10.6234
1 29.3116 25.2353 9.78624
1 28.5567 24.4346 9.80736
1 0.015 23.6504 10.6234
1 0.808701 22.8567 10.6234
1 0.833629 23.6567 9.83256
1 0.0741653 22.8658 9.80981
1 1.6024 23.6504 10.6234
1 2.3961 22.8567 10.6234
1 2.42656 23.636 9.85168
1 1.60486 22.8633 9.83969
1 3.1898 23.6504 10.6234
1 3.9835 22.8567 10.6234
1 3.98545 23.6606 9.82518
1 3.20668 22.845 9.81008
1 4.7772 23.6504 10.6234
1 5.5709 22.8567 10.6234
1 5.56003 23.6805 9.85593
1 4.78503 22.852 9.81984
1 6.3646 23.6504 10.6234
1 7.1583 22.8567 10.6234
1 7.13907 23.6437 9.81494
1 6.38697 22.8619 9.8231
1 7.95201 23.6504 10.6234
1 8.74571 22.8567 10.6234
1 8.76165 23.6392 9.82463
1 7.96043 22.8637 9.81782
1 9.53941 23.6504 10.6234
1 10.3331 22.8567 10.6234
1 10.3431 23.6226 9.82704
1 9.52494 22.8575 9.81222
1 11.1268 23.6504 10.6234
1 11.9205 22.8567 10.6234
1 11.9185 23.6577 9.82743
1 11.1188 22.8471 9.84162
1 12.7142 23.6504 10.6234
1 13.5079 22.8567 10.6234
1 13.5264 23.6488 9.82466
1 12.7259 22.8717 9.81942
1 14.3016 23.6504 10.6234
1 15.0953 22.8567 10.6234
1 15.1018 23.6678 9.85499
1 14.2911 22.8644 9.82693
1 15.889 23.6504 10.6234
1 16.6827 22.8567 10.6234
1 16.6853 23.6505 9.8317
1 15.888 22.8421 9.84618
1 17.4764 23.6504 10.6234
1 18.2701 22.8567 10.6234
1 18.2574 23.6356 9.81634
1 17.4374 22.8489 9.81293
1 19.0638 23.6504 10.6234
1 19.8575 22.8567 10.6234
1 19.8528 23.6479 9.83356
1 19.0514 22.8471 9.84437
1 20.6512 23.6504 10.6234
1 21.4449 22.8567 10.6234
1 21.4461 23.6425 9.82369
1 20.6342 22.8466 9.83524
1 22.2386 23.6504 10.6234
1 23.0323 22.8567 10.6234
1 23.0606 23.6575 9.82162
1 22.2224 22.8567 9.82008
1 23.826 23.6504 10.6234
1 24.6197 22.8567 10.6234
1 24.6069 23.6513 9.82267
1 23.8485 22.8586 9.83599
1 25.4134 23.6504 10.6234
1 26.2071 22.8567 10.6234
1 26.1956 23.6566 9.80044
1 25.3952 22.8515 9.83976
1 27.0008 23.6504 10.6234
1 27.7945 22.8567 10.6234
1 27.7675 23.6643 9.81035
1 26.9938 22.8628 9.85429
1 28.5882 23.6504 10.6234
1 29.3819 22.8567 10.6234
1 29.2933 23.6396 9.8144
1 28.5492 22.8589 9.85905
1 0.015 22.063 10.6234
1 0.808701 21.2693 10.6234
1 0.818523 22.0496 9.83117
1 0.0761627 21.2821 9.77178
1 1.6024 22.063 10.6234
1 2.3961 21.2693 10.6234
1 2.39453 22.0782 9.84119
1 1.61716 21.2819 9.8008
1 3.1898 22.063 10.6234
1 3.9835 21.2693 10.6234
1 4 22.0686 9.85759
1 3.19296 21.2476 9.8153
1 4.7772 22.063 10.6234
1 5.5709 21.2693 10.6234
1 5.56516 22.0773 9.82281
1 4.78219 21.2659 9.85522
1 6.3646 22.063 10.6234
1 7.1583 21.2693 10.6234
1 7.1694 22.0579 9.84715
1 6.34678 21.2617 9.83077
1 7.95201 22.063 10.6234
1 8.74571 21.2693 10.6234
1 8.75996 22.0679 9.83071
1 7.96601 21.2553 9.79567
1 9.53941 22.063 10.6234
1 10.3331 21.2693 10.6234
1 10.3053 22.0457 9.84474
1 9.54091 21.2562 9.83886
1 11.1268 22.063 10.6234
1 11.9205 21.2693 10.6234
1 11.9112 22.0712 9.85167
1 11.1074 21.2379 9.83714
1 12.7142 22.063 10.6234
1 13.5079 21.2693 10.6234
1 13.5131 22.0733 9.80194
1 12.7292 21.2714 9.85262
1 14.3016 22.063 10.6234
1 15.0953 21.2693 10.6234
1 15.0976 22.047 9.82316
1 14.2855 21.2763 9.83214
1 15.889 22.063 10.6234
1 16.6827 21.2693 10.6234
1 16.6567 22.0564 9.83397
1 15.8826 21.272 9.828
1 17.4764 22.063 10.6234
1 18.2701 21.2693 10.6234
1 18.2528 22.0631 9.84702
1 17.4768 21.2546 9.83891
1 19.0638 22.063 10.6234
1 19.8575 21.2693 10.6234
1 19.8704 22.0567 9.84044
1 19.0342 21.2664 9.84032
1 20.6512 22.063 10.6234
1 21.4449 21.2693 10.6234
1 21.4298 22.0665 9.82457
1 20.6529 21.2292 9.84193
1 22.2386 22.063 10.6234
1 23.0323 21.2693 10.6234
1 23.0358 22.0766 9.84638
1 22.24 21.2866 9.82852
1 23.826 22.063 10.6234
1 24.6197 21.2693 10.6234
1 24.6212 22.0518 9.82405
1 23.8212 21.307 9.84007
1 25.4134 22.063 10.6234
1 26.2071 21.2693 10.6234
1 26.1988 22.0555 9.82291
1 25.4084 21.2577 9.81888
1 27.0008 22.063 10.6234
1 27.7945 21.2693 10.6234
1 27.7697 22.0531 9.8167
1 26.9808 21.2455 9.83498
1 28.5882 22.063 10.6234
1 29.3819 21.2693 10.6234
1 29.3138 22.0484 9.7831
1 28.5449 21.2606 9.83854
1 0.015 20.4756 10.6234
1 0.808701 19.6819 10.6234
1 0.812441 20.4838 9.8234
1 0.0718207 19.7088 9.79397
1 1.6024 20.4756 10.6234
1 2.3961 19.6819 10.6234
1 2.40273 20.4559 9.81826
1 1.59326 19.6642 9.81631
1 3.1898 20.4756 10.6234
1 3.9835 19.6819 10.6234
1 3.99089 20.4506 9.84246
1 3.22403 19.6658 9.84464
1 4.7772 20.4756 10.6234
1 5.5709 19.6819 10.6234
1 5.57863 20.4616 9.82575
1 4.77914 19.6912 9.81778
1 6.3646 20.4756 10.6234
1 7.1583 19.6819 10.6234
1 7.14118 20.464 9.8335
1 6.38124 19.6887 9.82023
1 7.95201 20.4756 10.6234
1 8.74571 19.6819 10.6234
1 8.75679 20.4663 9.83491
1 7.93596 19.688 9.8494
1 9.53941 20.4756 10.6234
1 10.3331 19.6819 10.6234
1 10.3342 20.4671 9.83071
1 9.53668 19.668 9.82309
1 11.1268 20.4756 10.6234
1 11.9205 19.6819 10.6234
1 11.9202 20.4741 9.84991
1 11.1277 19.6838 9.84239
1 12.7142 20.4756 10.6234
1 13.5079 19.6819 10.6234
1 13.5214 20.4723 9.82216
1 12.6998 19.6857 9.8237
1 14.3016 20.4756 10.6234
1 15.0953 19.6819 10.6234
1 15.1057 20.4888 9.81334
1 14.2885 19.7009 9.82119
1 15.889 20.4756 10.6234
1 16.6827 19.6819 10.6234
1 16.6832 20.4615 9.82114
1 15.8825 19.6586 9.835
1 17.4764 20.4756 10.6234
1 18.2701 19.6819 10.6234
1 18.269 20.4611 9.83189
1 17.4821 19.6793 9.82137
1 19.0638 20.4756 10.6234
1 19.8575 19.6819 10.6234
1 19.8572 20.4843 9.84236
1 19.0685 19.6794 9.82817
1 20.6512 20.4756 10.6234
1 21.4449 19.6819 10.6234
1 21.4505 20.4617 9.83836
1 20.6266 19.7015 9.82725
1 22.2386 20.4756 10.6234
1 23.0323 19.6819 10.6234
1 23.0175 20.4704 9.82371
1 22.2294 19.7002 9.81385
1 23.826 20.4756 10.6234
1 24.6197 19.6819 10.6234
1 24.6182 20.5062 9.83206
1 23.8139 19.6968 9.83022
1 25.4134 20.4756 10.6234
1 26.2071 19.6819 10.6234
1 26.1841 20.456 9.8248
1 25.4013 19.6613 9.85054
1 27.0008 20.4756 10.6234
1 27.7945 19.6819 10.6234
1 27.7684 20.4827 9.81707
1 26.9827 19.6921 9.82585
1 28.5882 20.4756 10.6234
1 29.3819 19.6819 10.6234
1 29.2853 20.4826 9.79511
1 28.5548 19.6727 9.8178
1 0.015 18.8882 10.6234
1 0.808701 18.0945 10.6234
1 0.822898 18.8937 9.8024
1 0.0679283 18.1057 9.78282
1 1.6024 18.8882 10.6234
1 2.3961 18.0945 10.6234
1 2.41069 18.8879 9.82828
1 1.62982 18.1147 9.82607
1 3.1898 18.8882 10.6234
1 3.9835 18.0945 10.6234
1 3.99946 18.8879 9.84814
1 3.19919 18.115 9.84403
1 4.7772 18.8882 10.6234
1 5.5709 18.0945 10.6234
1 5.58556 18.8915 9.83398
1 4.79146 18.0996 9.82648
1 6.3646 18.8882 10.6234
1 7.1583 18.0945 10.6234
1 7.16732 18.901 9.83018
1 6.3778 18.1169 9.81787
1 7.95201 18.8882 10.6234
1 8.74571 18.0945 10.6234
1 8.73474 18.889 9.83909
1 7.9754 18.0873 9.83112
1 9.53941 18.8882 10.6234
1 10.3331 18.0945 10.6234
1 10.3373 18.89 9.83779
1 9.56947 18.1196 9.81586
1 11.1268 18.8882 10.6234
1 11.9205 18.0945 10.6234
1 11.9273 18.865 9.83555
1 11.1328 18.1004 9.83009
1 12.7142 18.8882 10.6234
1 13.5079 18.0945 10.6234
1 13.5134 18.9022 9.81362
1 12.7116 18.0869 9.82386
1 14.3016 18.8882 10.6234
1 15.0953 18.0945 10.6234
1 15.1075 18.8883 9.80678
1 14.2991 18.0869 9.82158
1 15.889 18.8882 10.6234
1 16.6827 18.0945 10.6234
1 16.7007 18.8778 9.82497
1 15.898 18.1054 9.80363
1 17.4764 18.8882 10.6234
1 18.2701 18.0945 10.6234
1 18.2841 18.8835 9.80207
1 17.479 18.1146 9.80223
1 19.0638 18.8882 10.6234
1 19.8575 18.0945 10.6234
1 19.8422 18.8844 9.84473
1 19.0576 18.0803 9.84208
1 20.6512 18.8882 10.6234
1 21.4449 18.0945 10.6234
1 21.4225 18.8926 9.80891
1 20.6591 18.0856 9.81731
1 22.2386 18.8882 10.6234
1 23.0323 18.0945 10.6234
1 23.0314 18.8724 9.83436
1 22.1991 18.0825 9.82624
1 23.826 18.8882 10.6234
1 24.6197 18.0945 10.6234
1 24.6286 18.8935 9.80612
1 23.8186 18.0975 9.82469
1 25.4134 18.8882 10.6234
1 26.2071 18.0945 10.6234
1 26.2107 18.9079 9.83727
1 25.4023 18.0882 9.82232
1 27.0008 18.8882 10.6234
1 27.7945 18.0945 10.6234
1 27.7829 18.88 9.82246
1 27.0056 18.1041 9.82816
1 28.5882 18.8882 10.6234
1 29.3819 18.0945 10.6234
1 29.3498 18.8841 9.78423
1 28.5729 18.0961 9.84424
1 0.015 17.3008 10.6234
1 0.808701 16.5071 10.6234
1 0.862328 17.3339 9.83073
1 0.0885993 16.5222 9.79771
1 1.6024 17.3008 10.6234
1 2.3961 16.5071 10.6234
1 2.40144 17.3093 9.8446
1 1.61195 16.4894 9.8228
1 3.1898 17.3008 10.6234
1 3.9835 16.5071 10.6234
1 3.97893 17.3089 9.84521
1 3.2063 16.5171 9.84707
1 4.7772 17.3008 10.6234
1 5.5709 16.5071 10.6234
1 5.60432 17.3368 9.83241
1 4.77148 16.5252 9.83319
1 6.3646 17.3008 10.6234
1 7.1583 16.5071 10.6234
1 7.14541 17.3226 9.82043
1 6.37342 16.518 9.83331
1 7.95201 17.3008 10.6234
1 8.74571 16.5071 10.6234
1 8.75676 17.3083 9.82732
1 7.96774 16.5252 9.84784
1 9.53941 17.3008 10.6234
1 10.3331 16.5071 10.6234
1 10.3318 17.3191 9.82874
1 9.53806 16.5358 9.82554
1 11.1268 17.3008 10.6234
1 11.9205 16.5071 10.6234
1 11.9197 17.291 9.80469
1 11.1056 16.5171 9.80213
1 12.7142 17.3008 10.6234
1 13.5079 16.5071 10.6234
1 13.4978 17.3022 9.84331
1 12.7153 16.5053 9.84755
1 14.3016 17.3008 10.6234
1 15.0953 16.5071 10.6234
1 15.1091 17.3432 9.84106
1 14.3124 16.5086 9.84083
1 15.889 17.3008 10.6234
1 16.6827 16.5071 10.6234
1 16.6871 17.2933 9.83815
1 15.8968 16.5157 9.81788
1 17.4764 17.3008 10.6234
1 18.2701 16.5071 10.6234
1 18.273 17.278 9.82786
1 17.4679 16.4782 9.82642
1 19.0638 17.3008 10.6234
1 19.8575 16.5071 10.6234
1 19.8295 17.3063 9.81555
1 19.0586 16.5005 9.82583
1 20.6512 17.3008 10.6234
1 21.4449 16.5071 10.6234
1 21.4331 17.2996 9.81449
1 20.654 16.5388 9.83979
1 22.2386 17.3008 10.6234
1 23.0323 16.5071 10.6234
1 23.0118 17.2838 9.83062
1 22.2431 16.5036 9.81344
1 23.826 17.3008 10.6234
1 24.6197 16.5071 10.6234
1 24.6275 17.3029 9.84255
1 23.8206 16.5277 9.82069
1 25.4134 17.3008 10.6234
1 26.2071 16.5071 10.6234
1 26.2031 17.2808 9.82983
1 25.4183 16.4866 9.82212
1 27.0008 17.3008 10.6234
1 27.7945 16.5071 10.6234
1 27.8009 17.3063 9.8336
1 27.0161 16.5092 9.82357
1 28.5882 17.3008 10.6234
1 29.3819 16.5071 10.6234
1 29.3241 17.2859 9.77725
1 28.5611 16.4948 9.82743
1 0.015 15.7134 10.6234
1 0.808701 14.9197 10.6234
1 0.818068 15.7481 9.81963
1 0.0800403 14.9289 9.77346
1 1.6024 15.7134 10.6234
1 2.3961 14.9197 10.6234
1 2.42724 15.6976 9.85778
1 1.62898 14.9319 9.83289
1 3.1898 15.7134 10.6234
1 3.9835 14.9197 10.6234
1 3.99885 15.7223 9.82054
1 3.18783 14.9145 9.84529
1 4.7772 15.7134 10.6234
1 5.5709 14.9197 10.6234
1 5.57691 15.7032 9.81829
1 4.7735 14.9025 9.81127
1 6.3646 15.7134 10.6234
1 7.1583 14.9197 10.6234
1 7.14109 15.7303 9.83205
1 6.36211 14.9027 9.83758
1 7.95201 15.7134 10.6234
1 8.74571 14.9197 10.6234
1 8.73324 15.7147 9.79311
1 7.94353 14.9116 9.81812
1 9.53941 15.7134 10.6234
1 10.3331 14.9197 10.6234
1 10.3061 15.72 9.82832
1 9.56426 14.9055 9.82064
1 11.1268 15.7134 10.6234
1 11.9205 14.9197 10.6234
1 11.9027 15.707 9.83262
1 11.1006 14.9246 9.83315
1 12.7142 15.7134 10.6234
1 13.5079 14.9197 10.6234
1 13.4938 15.7081 9.8283
1 12.7245 14.8896 9.84023
1 14.3016 15.7134 10.6234
1 15.0953 14.9197 10.6234
1 15.1066 15.6912 9.82852
1 14.2944 14.9206 9.83394
1 15.889 15.7134 10.6234
1 16.6827 14.9197 10.6234
1 16.6938 15.7307 9.83841
1 15.8888 14.9532 9.85492
1 17.4764 15.7134 10.6234
1 18.2701 14.9197 10.6234
1 18.3008 15.7092 9.81834
1 17.4769 14.9177 9.83685
1 19.0638 15.7134 10.6234
1 19.8575 14.9197 10.6234
1 19.8525 15.7426 9.83152
1 19.0773 14.915 9.85084
1 20.6512 15.7134 10.6234
1 21.4449 14.9197 10.6234
1 21.4339 15.7224 9.82504
1 20.6297 14.929 9.82563
1 22.2386 15.7134 10.6234
1 23.0323 14.9197 10.6234
1 23.0325 15.7045 9.83985
1 22.2183 14.9019 9.85226
1 23.826 15.7134 10.6234
1 24.6197 14.9197 10.6234
1 24.5984 15.7056 9.84096
1 23.8043 14.9147 9.83306
1 25.4134 15.7134 10.6234
1 26.2071 14.9197 10.6234
1 26.1848 15.7042 9.82495
1 25.4197 14.9073 9.82742
1 27.0008 15.7134 10.6234
1 27.7945 14.9197 10.6234
1 27.8023 15.6743 9.81729
1 27.0077 14.9125 9.84249
1 28.5882 15.7134 10.6234
1 29.3819 14.9197 10.6234
1 29.3226 15.7208 9.78168
1 28.5699 14.914 9.80886
1 0.015 14.126 10.6234
1 0.808701 13.3323 10.6234
1 0.843778 14.12 9.80712
1 0.0746428 13.3406 9.81007
1 1.6024 14.126 10.6234
1 2.3961 13.3323 10.6234
1 2.40611 14.1211 9.83539
1 1.62055 13.3458 9.82316
1 3.1898 14.126 10.6234
1 3.9835 13.3323 10.6234
1 3.97577 14.1233 9.8282
1 3.19614 13.3631 9.83197
1 4.7772 14.126 10.6234
1 5.5709 13.3323 10.6234
1 5.58613 14.1159 9.82984
1 4.78741 13.3379 9.82537
1 6.3646 14.126 10.6234
1 7.1583 13.3323 10.6234
1 7.1495 14.1035 9.81579
1 6.35241 13.3392 9.81689
1 7.95201 14.126 10.6234
1 8.74571 13.3323 10.6234
1 8.74595 14.1215 9.83815
1 7.94417 13.3307 9.84639
1 9.53941 14.126 10.6234
1 10.3331 13.3323 10.6234
1 10.3435 14.1178 9.80346
1 9.56717 13.3393 9.82666
1 11.1268 14.126 10.6234
1 11.9205 13.3323 10.6234
1 11.8987 14.1262 9.81401
1 11.1175 13.3175 9.82714
1 12.7142 14.126 10.6234
1 13.5079 13.3323 10.6234
1 13.5022 14.1297 9.83244
1 12.7182 13.3411 9.84597
1 14.3016 14.126 10.6234
1 15.0953 13.3323 10.6234
1 15.1251 14.1308 9.80995
1 14.3431 13.3491 9.81403
1 15.889 14.126 10.6234
1 16.6827 13.3323 10.6234
1 16.6559 14.1335 9.8363
1 15.8942 13.3283 9.84382
1 17.4764 14.126 10.6234
1 18.2701 13.3323 10.6234
1 18.2575 14.1382 9.81634
1 17.4548 13.3516 9.84272
1 19.0638 14.126 10.6234
1 19.8575 13.3323 10.6234
1 19.8494 14.1122 9.84962
1 19.0647 13.3195 9.82292
1 20.6512 14.126 10.6234
1 21.4449 13.3323 10.6234
1 21.4406 14.1518 9.8347
1 20.6643 13.3369 9.83207
1 22.2386 14.126 10.6234
1 23.0323 13.3323 10.6234
1 23.0382 14.1391 9.85216
1 22.2391 13.3445 9.81936
1 23.826 14.126 10.6234
1 24.6197 13.3323 10.6234
1 24.6333 14.1267 9.84274
1 23.7974 13.3596 9.82368
1 25.4134 14.126 10.6234
1 26.2071 13.3323 10.6234
1 26.2125 14.1255 9.80332
1 25.3803 13.3193 9.8402
1 27.0008 14.126 10.6234
1 27.7945 13.3323 10.6234
1 27.7889 14.113 9.82812
1 26.9956 13.3128 9.82665
1 28.5882 14.126 10.6234
1 29.3819 13.3323 10.6234
1 29.3065 14.1356 9.79974
1 28.5537 13.3317 9.81113
1 0.015 12.5386 10.6234
1 0.808701 11.7449 10.6234
1 0.853233 12.5244 9.82591
1 0.0786607 11.756 9.80316
1 1.6024 12.5386 10.6234
1 2.3961 11.7449 10.6234
1 2.42383 12.5362 9.81274
1 1.61624 11.7411 9.82138
1 3.1898 12.5386 10.6234
1 3.9835 11.7449 10.6234
1 3.98537 12.5348 9.8229
1 3.21313 11.7268 9.84085
1 4.7772 12.5386 10.6234
1 5.5709 11.7449 10.6234
1 5.57097 12.5185 9.83247
1 4.78231 11.7359 9.8294
1 6.3646 12.5386 10.6234
1 7.1583 11.7449 10.6234
1 7.16345 12.5269 9.82895
1 6.3665 11.741 9.81124
1 7.95201 12.5386 10.6234
1 8.74571 11.7449 10.6234
1 8.76408 12.5408 9.82103
1 7.97341 11.7334 9.83949
1 9.53941 12.5386 10.6234
1 10.3331 11.7449 10.6234
1 10.3076 12.5352 9.82494
1 9.55291 11.7433 9.84311
1 11.1268 12.5386 10.6234
1 11.9205 11.7449 10.6234
1 11.9378 12.5282 9.84306
1 11.1182 11.7473 9.84112
1 12.7142 12.5386 10.6234
1 13.5079 11.7449 10.6234
1 13.5015 12.5466 9.8295
1 12.7344 11.733 9.82501
1 14.3016 12.5386 10.6234
1 15.0953 11.7449 10.6234
1 15.1082 12.5429 9.84322
1 14.3057 11.732 9.84031
1 15.889 12.5386 10.6234
1 16.6827 11.7449 10.6234
1 16.698 12.5376 9.83176
1 15.8814 11.7227 9.84872
1 17.4764 12.5386 10.6234
1 18.2701 11.7449 10.6234
1 18.2761 12.5325 9.8168
1 17.4838 11.7502 9.84204
1 19.0638 12.5386 10.6234
1 19.8575 11.7449 10.6234
1 19.8601 12.5319 9.82342
1 19.0708 11.7428 9.8248
1 20.6512 12.5386 10.6234
1 21.4449 11.7449 10.6234
1 21.4464 12.5114 9.83825
1 20.6552 11.7275 9.82334
1 22.2386 12.5386 10.6234
1 23.0323 11.7449 10.6234
1 23.0072 12.5495 9.83547
1 22.2494 11.7556 9.82489
1 23.826 12.5386 10.6234
1 24.6197 11.7449 10.6234
1 24.5646 12.557 9.85011
1 23.8124 11.769 9.83394
1 25.4134 12.5386 10.6234
1 26.2071 11.7449 10.6234
1 26.1838 12.5493 9.81514
1 25.3904 11.7441 9.8244
1 27.0008 12.5386 10.6234
1 27.7945 11.7449 10.6234
1 27.7763 12.5247 9.812
1 27.001 11.7735 9.82832
1 28.5882 12.5386 10.6234
1 29.3819 11.7449 10.6234
1 29.3242 12.5371 9.79906
1 28.558 11.7821 9.82955
1 0.015 10.9512 10.6234
1 0.808701 10.1575 10.6234
1 0.832781 10.9214 9.82735
1 0.0538397 10.162 9.8054
1 1.6024 10.9512 10.6234
1 2.3961 10.1575 10.6234
1 2.39353 10.9336 9.84321
1 1.63064 10.1401 9.81175
1 3.1898 10.9512 10.6234
1 3.9835 10.1575 10.6234
1 4.01142 10.9155 9.8244
1 3.17361 10.1436 9.83587
1 4.7772 10.9512 10.6234
1 5.5709 10.1575 10.6234
1 5.59414 10.942 9.81975
1 4.81021 10.1519 9.84083
1 6.3646 10.9512 10.6234
1 7.1583 10.1575 10.6234
1 7.16425 10.9238 9.84432
1 6.3509 10.1457 9.80673
1 7.95201 10.9512 10.6234
1 8.74571 10.1575 10.6234
1 8.74467 10.9393 9.82752
1 7.96019 10.1461 9.82293
1 9.53941 10.9512 10.6234
1 10.3331 10.1575 10.6234
1 10.3402 10.9627 9.83487
1 9.553 10.1785 9.82366
1 11.1268 10.9512 10.6234
1 11.9205 10.1575 10.6234
1 11.9217 10.9397 9.79755
1 11.1165 10.1325 9.80904
1 12.7142 10.9512 10.6234
1 13.5079 10.1575 10.6234
1 13.5129 10.9472 9.84285
1 12.7028 10.1759 9.81654
1 14.3016 10.9512 10.6234
1 15.0953 10.1575 10.6234
1 15.0893 10.9428 9.83772
1 14.2902 10.1475 9.83983
1 15.889 10.9512 10.6234
1 16.6827 10.1575 10.6234
1 16.7097 10.9576 9.83432
1 15.9112 10.145 9.81772
1 17.4764 10.9512 10.6234
1 18.2701 10.1575 10.6234
1 18.265 10.9467 9.83985
1 17.4853 10.1619 9.81511
1 19.0638 10.9512 10.6234
1 19.8575 10.1575 10.6234
1 19.852 10.9564 9.8296
1 19.0608 10.1667 9.82548
1 20.6512 10.9512 10.6234
1 21.4449 10.1575 10.6234
1 21.4624 10.9578 9.8458
1 20.6505 10.168 9.82587
1 22.2386 10.9512 10.6234
1 23.0323 10.1575 10.6234
1 23.0446 10.9593 9.83675
1 22.234 10.1769 9.83801
1 23.826 10.9512 10.6234
1 24.6197 10.1575 10.6234
1 24.6088 10.9579 9.85734
1 23.8297 10.1695 9.83754
1 25.4134 10.9512 10.6234
1 26.2071 10.1575 10.6234
1 26.2109 10.9718 9.87752
1 25.397 10.1629 9.81618
1 27.0008 10.9512 10.6234
1 27.7945 10.1575 10.6234
1 27.7837 10.9537 9.82415
1 26.9857 10.1645 9.82553
1 28.5882 10.9512 10.6234
1 29.3819 10.1575 10.6234
1 29.3202 10.9517 9.81395
1 28.5641 10.1439 9.82702
1 0.015 9.36379 10.6234
1 0.808701 8.57009 10.6234
1 0.832712 9.3673 9.79815
1 0.0843235 8.56386 9.78234
1 1.6024 9.36379 10.6234
1 2.3961 8.57009 10.6234
1 2.39733 9.35143 9.7888
1 1.59968 8.57268 9.82562
1 3.1898 9.36379 10.6234
1 3.9835 8.57009 10.6234
1 3.98313 9.36855 9.8234
1 3.19839 8.59515 9.8096
1 4.7772 9.36379 10.6234
1 5.5709 8.57009 10.6234
1 5.57762 9.37536 9.82446
1 4.78621 8.55945 9.83313
1 6.3646 9.36379 10.6234
1 7.1583 8.57009 10.6234
1 7.15259 9.35231 9.83096
1 6.36619 8.5777 9.82542
1 7.95201 9.36379 10.6234
1 8.74571 8.57009 10.6234
1 8.73223 9.35974 9.84557
1 7.9306 8.55086 9.83002
1 9.53941 9.36379 10.6234
1 10.3331 8.57009 10.6234
1 10.3319 9.35592 9.82748
1 9.52873 8.56766 9.82512
1 11.1268 9.36379 10.6234
1 11.9205 8.57009 10.6234
1 11.9173 9.36635 9.8264
1 11.1149 8.6095 9.83518
1 12.7142 9.36379 10.6234
1 13.5079 8.57009 10.6234
1 13.4856 9.37202 9.84908
1 12.7111 8.57632 9.84966
1 14.3016 9.36379 10.6234
1 15.0953 8.57009 10.6234
1 15.1247 9.32409 9.81864
1 14.2872 8.58304 9.83962
1 15.889 9.36379 10.6234
1 16.6827 8.57009 10.6234
1 16.6813 9.35359 9.83822
1 15.8857 8.56683 9.85832
1 17.4764 9.36379 10.6234
1 18.2701 8.57009 10.6234
1 18.3009 9.37555 9.83155
1 17.4788 8.57866 9.81946
1 19.0638 9.36379 10.6234
1 19.8575 8.57009 10.6234
1 19.8552 9.3614 9.82987
1 19.0624 8.56169 9.83583
1 20.6512 9.36379 10.6234
1 21.4449 8.57009 10.6234
1 21.4339 9.37464 9.84597
1 20.6497 8.58151 9.83476
1 22.2386 9.36379 10.6234
1 23.0323 8.57009 10.6234
1 23.0419 9.372 9.83991
1 22.2315 8.55609 9.85569
1 23.826 9.36379 10.6234
1 24.6197 8.57009 10.6234
1 24.5981 9.37198 9.83491
1 23.8074 8.55496 9.82427
1 25.4134 9.36379 10.6234
1 26.2071 8.57009 10.6234
1 26.1832 9.36613 9.82163
1 25.3901 8.57472 9.81932
1 27.0008 9.36379 10.6234
1 27.7945 8.57009 10.6234
1 27.7763 9.37415 9.82806
1 26.973 8.59602 9.83832
1 28.5882 9.36379 10.6234
1 29.3819 8.57009 10.6234
1 29.3313 9.33069 9.81554
1 28.5529 8.55709 9.85453
1 0.015 7.77639 10.6234
1 0.808701 6.98268 10.6234
1 0.840818 7.76754 9.80031
1 0.0900765 7.00807 9.81187
1 1.6024 7.77639 10.6234
1 2.3961 6.98268 10.6234
1 2.42554 7.76686 9.8218
1 1.62812 7.01796 9.82107
1 3.1898 7.77639 10.6234
1 3.9835 6.98268 10.6234
1 4.00673 7.76989 9.81088
1 3.198 6.99083 9.80761
1 4.7772 7.77639 10.6234
1 5.5709 6.98268 10.6234
1 5.5814 7.76553 9.84273
1 4.79547 6.97925 9.8046
1 6.3646 7.77639 10.6234
1 7.1583 6.98268 10.6234
1 7.16657 7.77031 9.8217
1 6.3514 6.98215 9.8326
1 7.95201 7.77639 10.6234
1 8.74571 6.98268 10.6234
1 8.7672 7.78749 9.8357
1 7.94272 6.99215 9.84531
1 9.53941 7.77639 10.6234
1 10.3331 6.98268 10.6234
1 10.3365 7.79604 9.84739
1 9.55794 6.98555 9.83851
1 11.1268 7.77639 10.6234
1 11.9205 6.98268 10.6234
1 11.908 7.78591 9.83643
1 11.1354 6.98413 9.81912
1 12.7142 7.77639 10.6234
1 13.5079 6.98268 10.6234
1 13.4938 7.78815 9.83159
1 12.6816 6.95647 9.81094
1 14.3016 7.77639 10.6234
1 15.0953 6.98268 10.6234
1 15.0893 7.76286 9.81883
1 14.2931 6.98103 9.83834
1 15.889 7.77639 10.6234
1 16.6827 6.98268 10.6234
1 16.6788 7.775 9.81406
1 15.9026 7.00535 9.84636
1 17.4764 7.77639 10.6234
1 18.2701 6.98268 10.6234
1 18.3059 7.78778 9.81652
1 17.4803 6.99388 9.8506
1 19.0638 7.77639 10.6234
1 19.8575 6.98268 10.6234
1 19.8595 7.79006 9.84752
1 19.0706 6.99629 9.83688
1 20.6512 7.77639 10.6234
1 21.4449 6.98268 10.6234
1 21.4417 7.76838 9.851
1 20.6475 7.0062 9.83569
1 22.2386 7.77639 10.6234
1 23.0323 6.98268 10.6234
1 23.0294 7.78618 9.83662
1 22.2448 6.96995 9.8273
1 23.826 7.77639 10.6234
1 24.6197 6.98268 10.6234
1 24.6131 7.78135 9.82678
1 23.8451 6.98159 9.8256
1 25.4134 7.77639 10.6234
1 26.2071 6.98268 10.6234
1 26.1903 7.79477 9.83611
1 25.4209 6.96565 9.82342
1 27.0008 7.77639 10.6234
1 27.7945 6.98268 10.6234
1 27.7633 7.77862 9.82939
1 26.977 6.99046 9.83082
1 28.5882 7.77639 10.6234
1 29.3819 6.98268 10.6234
1 29.3152 7.78249 9.80326
1 28.5513 6.99083 9.82247
1 0.015 6.18898 10.6234
1 0.808701 5.39528 10.6234
1 0.855251 6.1981 9.82768
1 0.088731 5.39404 9.81274
1 1.6024 6.18898 10.6234
1 2.3961 5.39528 10.6234
1 2.42592 6.16726 9.8207
1 1.60816 5.41098 9.82779
1 3.1898 6.18898 10.6234
1 3.9835 5.39528 10.6234
1 4.01002 6.21376 9.83516
1 3.20092 5.39878 9.84393
1 4.7772 6.18898 10.6234
1 5.5709 5.39528 10.6234
1 5.58833 6.19082 9.80835
1 4.77888 5.40334 9.85556
1 6.3646 6.18898 10.6234
1 7.1583 5.39528 10.6234
1 7.13452 6.18475 9.8389
1 6.36674 5.41333 9.84508
1 7.95201 6.18898 10.6234
1 8.74571 5.39528 10.6234
1 8.76016 6.18439 9.8525