9376
Atoms. Timestep: 4000000
1 0.15 3.55271e-15 10.6544
1 0.943701 29.2063 10.6544
1 0.9562 29.9252 9.81674
1 0.22666 29.1862 9.81889
1 1.7374 3.55271e-15 10.6544
1 2.5311 29.2063 10.6544
1 2.56634 29.9156 9.81714
1 1.75169 29.1669 9.90055
1 3.3248 3.55271e-15 10.6544
1 4.1185 29.2063 10.6544
1 4.1442 29.9063 9.81106
1 3.31009 29.2012 9.84325
1 4.9122 3.55271e-15 10.6544
1 5.7059 29.2063 10.6544
1 5.71319 29.9312 9.8453
1 4.93884 29.1873 9.85812
1 6.4996 3.55271e-15 10.6544
1 7.2933 29.2063 10.6544
1 7.31163 29.9258 9.82317
1 6.50718 29.1634 9.82959
1 8.08701 3.55271e-15 10.6544
1 8.88071 29.2063 10.6544
1 8.85886 29.9342 9.81621
1 8.0702 29.1527 9.85703
1 9.67441 3.55271e-15 10.6544
1 10.4681 29.2063 10.6544
1 10.4553 29.935 9.80394
1 9.65506 29.1868 9.86038
1 11.2618 3.55271e-15 10.6544
1 12.0555 29.2063 10.6544
1 12.0544 29.9538 9.83144
1 11.2361 29.1872 9.86206
1 12.8492 3.55271e-15 10.6544
1 13.6429 29.2063 10.6544
1 13.6273 29.9457 9.81511
1 12.8532 29.194 9.86584
1 14.4366 3.55271e-15 10.6544
1 15.2303 29.2063 10.6544
1 15.236 29.9345 9.84319
1 14.4397 29.1731 9.85377
1 16.024 3.55271e-15 10.6544
1 16.8177 29.2063 10.6544
1 16.8165 29.9122 9.82517
1 16.0242 29.1583 9.81736
1 17.6114 3.55271e-15 10.6544
1 18.4051 29.2063 10.6544
1 18.4043 29.9295 9.83005
1 17.6111 29.1624 9.83752
1 19.1988 3.55271e-15 10.6544
1 19.9925 29.2063 10.6544
1 19.9772 29.938 9.83445
1 19.1678 29.1861 9.83376
1 20.7862 3.55271e-15 10.6544
1 21.5799 29.2063 10.6544
1 21.5867 29.9333 9.84304
1 20.7795 29.1863 9.86245
1 22.3736 3.55271e-15 10.6544
1 23.1673 29.2063 10.6544
1 23.167 29.9149 9.82988
1 22.3833 29.178 9.85496
1 23.961 3.55271e-15 10.6544
1 24.7547 29.2063 10.6544
1 24.757 29.9232 9.8187
1 23.9744 29.1784 9.84086
1 25.5484 3.55271e-15 10.6544
1 26.3421 29.2063 10.6544
1 26.3492 29.9364 9.81926
1 25.5245 29.1579 9.8448
1 27.1358 3.55271e-15 10.6544
1 27.9295 29.2063 10.6544
1 27.9176 29.9082 9.82667
1 27.1224 29.1853 9.85902
1 28.7232 3.55271e-15 10.6544
1 29.5169 29.2063 10.6544
1 29.4661 29.9533 9.78921
1 28.7075 29.1944 9.83348
1 0.15 28.4126 10.6544
1 0.943701 27.6189 10.6544
1 0.966852 28.3916 9.88916
1 0.223132 27.6016 9.82805
1 1.7374 28.4126 10.6544
1 2.5311 27.6189 10.6544
1 2.55059 28.3903 9.86509
1 1.74575 27.6286 9.87734
1 3.3248 28.4126 10.6544
1 4.1185 27.6189 10.6544
1 4.11936 28.3886 9.85983
1 3.35528 27.6277 9.85102
1 4.9122 28.4126 10.6544
1 5.7059 27.6189 10.6544
1 5.71225 28.3933 9.88077
1 4.92113 27.5837 9.87931
1 6.4996 28.4126 10.6544
1 7.2933 27.6189 10.6544
1 7.29289 28.3906 9.85063
1 6.50127 27.6199 9.86124
1 8.08701 28.4126 10.6544
1 8.88071 27.6189 10.6544
1 8.86094 28.3957 9.85318
1 8.09027 27.6276 9.85986
1 9.67441 28.4126 10.6544
1 10.4681 27.6189 10.6544
1 10.4406 28.3916 9.85932
1 9.67269 27.6189 9.84426
1 11.2618 28.4126 10.6544
1 12.0555 27.6189 10.6544
1 12.0686 28.4114 9.85593
1 11.2791 27.5827 9.90663
1 12.8492 28.4126 10.6544
1 13.6429 27.6189 10.6544
1 13.6327 28.3983 9.85037
1 12.8379 27.602 9.84586
1 14.4366 28.4126 10.6544
1 15.2303 27.6189 10.6544
1 15.2133 28.4043 9.8497
1 14.4458 27.6196 9.87011
1 16.024 28.4126 10.6544
1 16.8177 27.6189 10.6544
1 16.7947 28.4002 9.86331
1 16.0292 27.6187 9.86464
1 17.6114 28.4126 10.6544
1 18.4051 27.6189 10.6544
1 18.4016 28.3901 9.84684
1 17.6112 27.6013 9.85777
1 19.1988 28.4126 10.6544
1 19.9925 27.6189 10.6544
1 19.9727 28.4008 9.84701
1 19.1976 27.5799 9.86591
1 20.7862 28.4126 10.6544
1 21.5799 27.6189 10.6544
1 21.5712 28.3757 9.86414
1 20.7655 27.5818 9.87468
1 22.3736 28.4126 10.6544
1 23.1673 27.6189 10.6544
1 23.1775 28.3701 9.84178
1 22.3525 27.6088 9.85162
1 23.961 28.4126 10.6544
1 24.7547 27.6189 10.6544
1 24.7488 28.4094 9.84979
1 23.9775 27.6178 9.86355
1 25.5484 28.4126 10.6544
1 26.3421 27.6189 10.6544
1 26.3167 28.4 9.89094
1 25.5459 27.6502 9.86882
1 27.1358 28.4126 10.6544
1 27.9295 27.6189 10.6544
1 27.9288 28.4303 9.83307
1 27.1094 27.6254 9.84609
1 28.7232 28.4126 10.6544
1 29.5169 27.6189 10.6544
1 29.4588 28.3838 9.81297
1 28.667 27.5907 9.83893
1 0.15 26.8252 10.6544
1 0.943701 26.0315 10.6544
1 0.955366 26.8536 9.8443
1 0.199322 26.0161 9.8398
1 1.7374 26.8252 10.6544
1 2.5311 26.0315 10.6544
1 2.52382 26.852 9.88706
1 1.75548 26.0602 9.87789
1 3.3248 26.8252 10.6544
1 4.1185 26.0315 10.6544
1 4.13181 26.8203 9.87693
1 3.342 26.0347 9.86926
1 4.9122 26.8252 10.6544
1 5.7059 26.0315 10.6544
1 5.7386 26.822 9.8426
1 4.90941 26.014 9.82732
1 6.4996 26.8252 10.6544
1 7.2933 26.0315 10.6544
1 7.29666 26.8509 9.85544
1 6.48359 26.0422 9.84301
1 8.08701 26.8252 10.6544
1 8.88071 26.0315 10.6544
1 8.88329 26.8302 9.84207
1 8.06134 26.0431 9.84412
1 9.67441 26.8252 10.6544
1 10.4681 26.0315 10.6544
1 10.4483 26.819 9.84928
1 9.6743 26.0169 9.87766
1 11.2618 26.8252 10.6544
1 12.0555 26.0315 10.6544
1 12.0659 26.8095 9.8629
1 11.2778 26.0247 9.84868
1 12.8492 26.8252 10.6544
1 13.6429 26.0315 10.6544
1 13.6157 26.8304 9.86288
1 12.8475 26.009 9.8764
1 14.4366 26.8252 10.6544
1 15.2303 26.0315 10.6544
1 15.2328 26.8315 9.86241
1 14.4332 26.0345 9.85604
1 16.024 26.8252 10.6544
1 16.8177 26.0315 10.6544
1 16.8294 26.8285 9.88164
1 16.0325 26.0209 9.84804
1 17.6114 26.8252 10.6544
1 18.4051 26.0315 10.6544
1 18.4131 26.8074 9.87172
1 17.62 26.0013 9.88402
1 19.1988 26.8252 10.6544
1 19.9925 26.0315 10.6544
1 19.9812 26.8071 9.86698
1 19.1832 26.0288 9.8772
1 20.7862 26.8252 10.6544
1 21.5799 26.0315 10.6544
1 21.568 26.8091 9.85488
1 20.7923 26.0156 9.85101
1 22.3736 26.8252 10.6544
1 23.1673 26.0315 10.6544
1 23.1533 26.811 9.88702
1 22.3756 26.0171 9.85519
1 23.961 26.8252 10.6544
1 24.7547 26.0315 10.6544
1 24.74 26.8171 9.89028
1 23.9578 26.0242 9.87931
1 25.5484 26.8252 10.6544
1 26.3421 26.0315 10.6544
1 26.3255 26.8172 9.86617
1 25.5534 26.0421 9.89819
1 27.1358 26.8252 10.6544
1 27.9295 26.0315 10.6544
1 27.8934 26.801 9.87166
1 27.1186 26.0378 9.86048
1 28.7232 26.8252 10.6544
1 29.5169 26.0315 10.6544
1 29.438 26.7953 9.82513
1 28.6693 26.0362 9.8764
1 0.15 25.2378 10.6544
1 0.943701 24.4441 10.6544
1 0.960399 25.2486 9.84947
1 0.208829 24.4209 9.82846
1 1.7374 25.2378 10.6544
1 2.5311 24.4441 10.6544
1 2.569 25.2414 9.85273
1 1.7632 24.4302 9.85679
1 3.3248 25.2378 10.6544
1 4.1185 24.4441 10.6544
1 4.12851 25.262 9.86081
1 3.35364 24.4469 9.86948
1 4.9122 25.2378 10.6544
1 5.7059 24.4441 10.6544
1 5.70779 25.2443 9.86507
1 4.91213 24.4578 9.88152
1 6.4996 25.2378 10.6544
1 7.2933 24.4441 10.6544
1 7.29816 25.2457 9.8613
1 6.5123 24.438 9.88155
1 8.08701 25.2378 10.6544
1 8.88071 24.4441 10.6544
1 8.87702 25.2471 9.84481
1 8.1015 24.4328 9.85793
1 9.67441 25.2378 10.6544
1 10.4681 24.4441 10.6544
1 10.4983 25.2276 9.86564
1 9.67669 24.4441 9.86766
1 11.2618 25.2378 10.6544
1 12.0555 24.4441 10.6544
1 12.0596 25.2188 9.85964
1 11.273 24.4285 9.87346
1 12.8492 25.2378 10.6544
1 13.6429 24.4441 10.6544
1 13.6447 25.2419 9.85811
1 12.8784 24.4104 9.87705
1 14.4366 25.2378 10.6544
1 15.2303 24.4441 10.6544
1 15.2259 25.2359 9.86979
1 14.4164 24.4474 9.85858
1 16.024 25.2378 10.6544
1 16.8177 24.4441 10.6544
1 16.7836 25.2437 9.87364
1 16.0067 24.4474 9.85448
1 17.6114 25.2378 10.6544
1 18.4051 24.4441 10.6544
1 18.4191 25.2405 9.85681
1 17.6131 24.4513 9.85252
1 19.1988 25.2378 10.6544
1 19.9925 24.4441 10.6544
1 19.9534 25.2323 9.83221
1 19.1926 24.425 9.86942
1 20.7862 25.2378 10.6544
1 21.5799 24.4441 10.6544
1 21.5568 25.2301 9.84483
1 20.7843 24.4587 9.84273
1 22.3736 25.2378 10.6544
1 23.1673 24.4441 10.6544
1 23.1633 25.2081 9.85318
1 22.3572 24.4092 9.85686
1 23.961 25.2378 10.6544
1 24.7547 24.4441 10.6544
1 24.7643 25.2514 9.85311
1 23.9751 24.4395 9.85491
1 25.5484 25.2378 10.6544
1 26.3421 24.4441 10.6544
1 26.3273 25.2599 9.85781
1 25.5536 24.4702 9.83744
1 27.1358 25.2378 10.6544
1 27.9295 24.4441 10.6544
1 27.8958 25.2395 9.86343
1 27.124 24.4405 9.86732
1 28.7232 25.2378 10.6544
1 29.5169 24.4441 10.6544
1 29.4306 25.232 9.8403
1 28.6919 24.4325 9.84031
1 0.15 23.6504 10.6544
1 0.943701 22.8567 10.6544
1 0.966262 23.6438 9.85491
1 0.222169 22.8633 9.8384
1 1.7374 23.6504 10.6544
1 2.5311 22.8567 10.6544
1 2.55694 23.6312 9.86761
1 1.7395 22.8589 9.86661
1 3.3248 23.6504 10.6544
1 4.1185 22.8567 10.6544
1 4.12143 23.6687 9.86444
1 3.3401 22.8433 9.84103
1 4.9122 23.6504 10.6544
1 5.7059 22.8567 10.6544
1 5.69391 23.6793 9.88498
1 4.91767 22.8556 9.85076
1 6.4996 23.6504 10.6544
1 7.2933 22.8567 10.6544
1 7.271 23.6446 9.85625
1 6.5208 22.8666 9.86148
1 8.08701 23.6504 10.6544
1 8.88071 22.8567 10.6544
1 8.89911 23.6319 9.8518
1 8.08881 22.8757 9.84849
1 9.67441 23.6504 10.6544
1 10.4681 22.8567 10.6544
1 10.4697 23.6318 9.87615
1 9.66257 22.8417 9.8437
1 11.2618 23.6504 10.6544
1 12.0555 22.8567 10.6544
1 12.0694 23.6596 9.8725
1 11.2675 22.8517 9.88188
1 12.8492 23.6504 10.6544
1 13.6429 22.8567 10.6544
1 13.6664 23.6398 9.84354
1 12.856 22.8671 9.86049
1 14.4366 23.6504 10.6544
1 15.2303 22.8567 10.6544
1 15.2371 23.6685 9.89771
1 14.4241 22.8609 9.85182
1 16.024 23.6504 10.6544
1 16.8177 22.8567 10.6544
1 16.8105 23.6476 9.841
1 16.0193 22.8427 9.87334
1 17.6114 23.6504 10.6544
1 18.4051 22.8567 10.6544
1 18.386 23.6414 9.84774
1 17.5792 22.8567 9.83989
1 19.1988 23.6504 10.6544
1 19.9925 22.8567 10.6544
1 19.9884 23.6479 9.85075
1 19.1962 22.855 9.86182
1 20.7862 23.6504 10.6544
1 21.5799 22.8567 10.6544
1 21.5817 23.6368 9.85859
1 20.7651 22.8457 9.86338
1 22.3736 23.6504 10.6544
1 23.1673 22.8567 10.6544
1 23.1826 23.6538 9.83923
1 22.3546 22.8435 9.83782
1 23.961 23.6504 10.6544
1 24.7547 22.8567 10.6544
1 24.7539 23.6493 9.86067
1 23.9758 22.8561 9.8653
1 25.5484 23.6504 10.6544
1 26.3421 22.8567 10.6544
1 26.3302 23.6486 9.84186
1 25.5342 22.8493 9.86749
1 27.1358 23.6504 10.6544
1 27.9295 22.8567 10.6544
1 27.8894 23.6604 9.84533
1 27.127 22.8507 9.88986
1 28.7232 23.6504 10.6544
1 29.5169 22.8567 10.6544
1 29.4548 23.6388 9.86147
1 28.6869 22.849 9.88361
1 0.15 22.063 10.6544
1 0.943701 21.2693 10.6544
1 0.964802 22.0409 9.854
1 0.218513 21.2795 9.81327
1 1.7374 22.063 10.6544
1 2.5311 21.2693 10.6544
1 2.53855 22.0788 9.86679
1 1.77076 21.2819 9.83417
1 3.3248 22.063 10.6544
1 4.1185 21.2693 10.6544
1 4.14134 22.0739 9.88088
1 3.3215 21.2496 9.83996
1 4.9122 22.063 10.6544
1 5.7059 21.2693 10.6544
1 5.69025 22.0784 9.85586
1 4.92264 21.2715 9.87997
1 6.4996 22.063 10.6544
1 7.2933 21.2693 10.6544
1 7.3207 22.0587 9.87357
1 6.487 21.2583 9.86379
1 8.08701 22.063 10.6544
1 8.88071 21.2693 10.6544
1 8.8795 22.0482 9.87204
1 8.09911 21.2512 9.82982
1 9.67441 22.063 10.6544
1 10.4681 21.2693 10.6544
1 10.4686 22.0512 9.86006
1 9.68477 21.2571 9.86675
1 11.2618 22.063 10.6544
1 12.0555 21.2693 10.6544
1 12.0565 22.0745 9.87473
1 11.2642 21.2353 9.86639
1 12.8492 22.063 10.6544
1 13.6429 21.2693 10.6544
1 13.6432 22.079 9.84021
1 12.8593 21.2802 9.88391
1 14.4366 22.063 10.6544
1 15.2303 21.2693 10.6544
1 15.2318 22.0426 9.84399
1 14.414 21.28 9.86078
1 16.024 22.063 10.6544
1 16.8177 21.2693 10.6544
1 16.7914 22.0583 9.87391
1 16.0348 21.2715 9.8554
1 17.6114 22.063 10.6544
1 18.4051 21.2693 10.6544
1 18.3968 22.0723 9.87388
1 17.6183 21.2595 9.86765
1 19.1988 22.063 10.6544
1 19.9925 21.2693 10.6544
1 19.996 22.0547 9.85848
1 19.166 21.2692 9.8623
1 20.7862 22.063 10.6544
1 21.5799 21.2693 10.6544
1 21.5705 22.0605 9.83875
1 20.7816 21.2407 9.86392
1 22.3736 22.063 10.6544
1 23.1673 21.2693 10.6544
1 23.166 22.0751 9.87322
1 22.3869 21.2796 9.85281
1 23.961 22.063 10.6544
1 24.7547 21.2693 10.6544
1 24.7385 22.0543 9.86574
1 23.9619 21.3058 9.85585
1 25.5484 22.063 10.6544
1 26.3421 21.2693 10.6544
1 26.3495 22.0441 9.85979
1 25.5381 21.251 9.84764
1 27.1358 22.063 10.6544
1 27.9295 21.2693 10.6544
1 27.9148 22.0536 9.84589
1 27.1094 21.2527 9.86879
1 28.7232 22.063 10.6544
1 29.5169 21.2693 10.6544
1 29.4445 22.0513 9.82044
1 28.6992 21.2599 9.87589
1 0.15 20.4756 10.6544
1 0.943701 19.6819 10.6544
1 0.956458 20.4946 9.85735
1 0.226676 19.7029 9.83387
1 1.7374 20.4756 10.6544
1 2.5311 19.6819 10.6544
1 2.54479 20.4552 9.84116
1 1.73687 19.6669 9.84414
1 3.3248 20.4756 10.6544
1 4.1185 19.6819 10.6544
1 4.12386 20.4515 9.86567
1 3.36313 19.6732 9.87167
1 4.9122 20.4756 10.6544
1 5.7059 19.6819 10.6544
1 5.70268 20.4613 9.85886
1 4.91409 19.6919 9.84679
1 6.4996 20.4756 10.6544
1 7.2933 19.6819 10.6544
1 7.28344 20.4614 9.86519
1 6.50231 19.6882 9.85855
1 8.08701 20.4756 10.6544
1 8.88071 19.6819 10.6544
1 8.88397 20.4779 9.86939
1 8.08009 19.6881 9.87672
1 9.67441 20.4756 10.6544
1 10.4681 19.6819 10.6544
1 10.4729 20.4647 9.86348
1 9.66598 19.675 9.84302
1 11.2618 20.4756 10.6544
1 12.0555 19.6819 10.6544
1 12.0548 20.4799 9.8749
1 11.2779 19.6902 9.87901
1 12.8492 20.4756 10.6544
1 13.6429 19.6819 10.6544
1 13.6454 20.4755 9.85071
1 12.8314 19.6955 9.87156
1 14.4366 20.4756 10.6544
1 15.2303 19.6819 10.6544
1 15.24 20.4921 9.8547
1 14.4219 19.6977 9.85401
1 16.024 20.4756 10.6544
1 16.8177 19.6819 10.6544
1 16.8246 20.4663 9.83715
1 16.0205 19.6565 9.86964
1 17.6114 20.4756 10.6544
1 18.4051 19.6819 10.6544
1 18.3992 20.4591 9.86139
1 17.617 19.6721 9.85167
1 19.1988 20.4756 10.6544
1 19.9925 19.6819 10.6544
1 19.9836 20.4914 9.87477
1 19.2117 19.6777 9.85645
1 20.7862 20.4756 10.6544
1 21.5799 19.6819 10.6544
1 21.5954 20.477 9.86392
1 20.7674 19.7057 9.86332
1 22.3736 20.4756 10.6544
1 23.1673 19.6819 10.6544
1 23.1481 20.4652 9.84446
1 22.3533 19.7105 9.84588
1 23.961 20.4756 10.6544
1 24.7547 19.6819 10.6544
1 24.7412 20.4992 9.87334
1 23.9536 19.7036 9.86004
1 25.5484 20.4756 10.6544
1 26.3421 19.6819 10.6544
1 26.3172 20.4599 9.87505
1 25.5266 19.6592 9.8825
1 27.1358 20.4756 10.6544
1 27.9295 19.6819 10.6544
1 27.9021 20.4785 9.85335
1 27.1071 19.695 9.86496
1 28.7232 20.4756 10.6544
1 29.5169 19.6819 10.6544
1 29.4434 20.4758 9.84501
1 28.7036 19.6718 9.85633
1 0.15 18.8882 10.6544
1 0.943701 18.0945 10.6544
1 0.963126 18.8955 9.83876
1 0.204363 18.1016 9.82487
1 1.7374 18.8882 10.6544
1 2.5311 18.0945 10.6544
1 2.5491 18.8956 9.85658
1 1.76201 18.1239 9.85702
1 3.3248 18.8882 10.6544
1 4.1185 18.0945 10.6544
1 4.1255 18.8903 9.87608
1 3.33009 18.1183 9.87752
1 4.9122 18.8882 10.6544
1 5.7059 18.0945 10.6544
1 5.70445 18.8936 9.86156
1 4.92145 18.0973 9.85005
1 6.4996 18.8882 10.6544
1 7.2933 18.0945 10.6544
1 7.29265 18.8998 9.86254
1 6.49652 18.1091 9.85029
1 8.08701 18.8882 10.6544
1 8.88071 18.0945 10.6544
1 8.8573 18.8919 9.87176
1 8.08523 18.0845 9.87354
1 9.67441 18.8882 10.6544
1 10.4681 18.0945 10.6544
1 10.4762 18.8941 9.88098
1 9.69074 18.1191 9.85838
1 11.2618 18.8882 10.6544
1 12.0555 18.0945 10.6544
1 12.0745 18.8692 9.87351
1 11.2781 18.102 9.86708
1 12.8492 18.8882 10.6544
1 13.6429 18.0945 10.6544
1 13.65 18.9034 9.83596
1 12.8376 18.0953 9.87253
1 14.4366 18.8882 10.6544
1 15.2303 18.0945 10.6544
1 15.2434 18.8904 9.85196
1 14.4235 18.0809 9.85293
1 16.024 18.8882 10.6544
1 16.8177 18.0945 10.6544
1 16.8286 18.8719 9.85097
1 16.0396 18.1073 9.83127
1 17.6114 18.8882 10.6544
1 18.4051 18.0945 10.6544
1 18.4075 18.8833 9.83448
1 17.6151 18.1216 9.84042
1 19.1988 18.8882 10.6544
1 19.9925 18.0945 10.6544
1 19.9734 18.8858 9.89006
1 19.1938 18.0788 9.87134
1 20.7862 18.8882 10.6544
1 21.5799 18.0945 10.6544
1 21.5582 18.8969 9.84973
1 20.7876 18.082 9.85451
1 22.3736 18.8882 10.6544
1 23.1673 18.0945 10.6544
1 23.1587 18.8823 9.86591
1 22.3331 18.0871 9.86745
1 23.961 18.8882 10.6544
1 24.7547 18.0945 10.6544
1 24.7551 18.889 9.84679
1 23.9519 18.0946 9.85913
1 25.5484 18.8882 10.6544
1 26.3421 18.0945 10.6544
1 26.3424 18.9113 9.8829
1 25.5344 18.0927 9.85146
1 27.1358 18.8882 10.6544
1 27.9295 18.0945 10.6544
1 27.9164 18.8811 9.85149
1 27.1357 18.107 9.86491
1 28.7232 18.8882 10.6544
1 29.5169 18.0945 10.6544
1 29.4736 18.8794 9.82959
1 28.7008 18.0896 9.87828
1 0.15 17.3008 10.6544
1 0.943701 16.5071 10.6544
1 1.00351 17.3367 9.8652
1 0.229587 16.5292 9.84087
1 1.7374 17.3008 10.6544
1 2.5311 16.5071 10.6544
1 2.53201 17.3087 9.87195
1 1.75046 16.4866 9.85714
1 3.3248 17.3008 10.6544
1 4.1185 16.5071 10.6544
1 4.11932 17.3051 9.88505
1 3.32696 16.5172 9.8674
1 4.9122 17.3008 10.6544
1 5.7059 16.5071 10.6544
1 5.74004 17.3292 9.86014
1 4.90753 16.5173 9.86076
1 6.4996 17.3008 10.6544
1 7.2933 16.5071 10.6544
1 7.27659 17.322 9.85254
1 6.51067 16.5149 9.86261
1 8.08701 17.3008 10.6544
1 8.88071 16.5071 10.6544
1 8.87755 17.3049 9.87606
1 8.09441 16.5179 9.866
1 9.67441 17.3008 10.6544
1 10.4681 16.5071 10.6544
1 10.4816 17.3154 9.86784
1 9.67653 16.532 9.87049
1 11.2618 17.3008 10.6544
1 12.0555 16.5071 10.6544
1 12.059 17.2945 9.84158
1 11.2589 16.5207 9.85203
1 12.8492 17.3008 10.6544
1 13.6429 16.5071 10.6544
1 13.622 17.3087 9.86775
1 12.8612 16.5089 9.87576
1 14.4366 17.3008 10.6544
1 15.2303 16.5071 10.6544
1 15.2523 17.3365 9.87639
1 14.4481 16.513 9.87309
1 16.024 17.3008 10.6544
1 16.8177 16.5071 10.6544
1 16.824 17.2978 9.87105
1 16.0183 16.5096 9.86144
1 17.6114 17.3008 10.6544
1 18.4051 16.5071 10.6544
1 18.4017 17.2785 9.8524
1 17.6158 16.488 9.86709
1 19.1988 17.3008 10.6544
1 19.9925 16.5071 10.6544
1 19.96 17.3057 9.85375
1 19.2112 16.5078 9.85547
1 20.7862 17.3008 10.6544
1 21.5799 16.5071 10.6544
1 21.5812 17.2934 9.86153
1 20.7921 16.5306 9.88208
1 22.3736 17.3008 10.6544
1 23.1673 16.5071 10.6544
1 23.1456 17.2883 9.8673
1 22.3641 16.4923 9.85266
1 23.961 17.3008 10.6544
1 24.7547 16.5071 10.6544
1 24.7529 17.306 9.89282
1 23.9628 16.5238 9.85822
1 25.5484 17.3008 10.6544
1 26.3421 16.5071 10.6544
1 26.3363 17.2872 9.86657
1 25.5506 16.488 9.85601
1 27.1358 17.3008 10.6544
1 27.9295 16.5071 10.6544
1 27.9191 17.3065 9.85546
1 27.1573 16.5154 9.8499
1 28.7232 17.3008 10.6544
1 29.5169 16.5071 10.6544
1 29.4608 17.2894 9.82976
1 28.689 16.4974 9.85738
1 0.15 15.7134 10.6544
1 0.943701 14.9197 10.6544
1 0.958794 15.7534 9.85685
1 0.213841 14.9336 9.81836
1 1.7374 15.7134 10.6544
1 2.5311 14.9197 10.6544
1 2.56192 15.6983 9.8853
1 1.75994 14.9266 9.86013
1 3.3248 15.7134 10.6544
1 4.1185 14.9197 10.6544
1 4.1266 15.7214 9.85736
1 3.33248 14.9088 9.87488
1 4.9122 15.7134 10.6544
1 5.7059 14.9197 10.6544
1 5.70384 15.7003 9.84251
1 4.89718 14.9002 9.85445
1 6.4996 15.7134 10.6544
1 7.2933 14.9197 10.6544
1 7.27443 15.7323 9.85201
1 6.50332 14.9059 9.86034
1 8.08701 15.7134 10.6544
1 8.88071 14.9197 10.6544
1 8.85428 15.7117 9.82515
1 8.06953 14.9038 9.84448
1 9.67441 15.7134 10.6544
1 10.4681 14.9197 10.6544
1 10.4498 15.7157 9.87326
1 9.68701 14.9002 9.85305
1 11.2618 15.7134 10.6544
1 12.0555 14.9197 10.6544
1 12.0428 15.702 9.87278
1 11.2465 14.9231 9.87176
1 12.8492 15.7134 10.6544
1 13.6429 14.9197 10.6544
1 13.6305 15.698 9.85309
1 12.8562 14.8909 9.87931
1 14.4366 15.7134 10.6544
1 15.2303 14.9197 10.6544
1 15.2374 15.7092 9.86755
1 14.4199 14.9204 9.85008
1 16.024 15.7134 10.6544
1 16.8177 14.9197 10.6544
1 16.8374 15.7196 9.87796
1 16.0276 14.9515 9.87984
1 17.6114 15.7134 10.6544
1 18.4051 14.9197 10.6544
1 18.4445 15.7052 9.84472
1 17.6204 14.9253 9.87757
1 19.1988 15.7134 10.6544
1 19.9925 14.9197 10.6544
1 19.9844 15.7318 9.86799
1 19.2088 14.918 9.88494
1 20.7862 15.7134 10.6544
1 21.5799 14.9197 10.6544
1 21.5775 15.7126 9.85611
1 20.7644 14.9174 9.84744
1 22.3736 15.7134 10.6544
1 23.1673 14.9197 10.6544
1 23.1633 15.6988 9.87049
1 22.3543 14.897 9.88226
1 23.961 15.7134 10.6544
1 24.7547 14.9197 10.6544
1 24.7406 15.712 9.88951
1 23.946 14.9135 9.86533
1 25.5484 15.7134 10.6544
1 26.3421 14.9197 10.6544
1 26.3294 15.7263 9.8539
1 25.571 14.9069 9.86973
1 27.1358 15.7134 10.6544
1 27.9295 14.9197 10.6544
1 27.9296 15.679 9.84282
1 27.1263 14.9198 9.86862
1 28.7232 15.7134 10.6544
1 29.5169 14.9197 10.6544
1 29.4493 15.7234 9.82454
1 28.7007 14.9204 9.84824
1 0.15 14.126 10.6544
1 0.943701 13.3323 10.6544
1 0.981161 14.1202 9.83287
1 0.213933 13.3389 9.84222
1 1.7374 14.126 10.6544
1 2.5311 13.3323 10.6544
1 2.54397 14.1207 9.86417
1 1.75928 13.3532 9.86132
1 3.3248 14.126 10.6544
1 4.1185 13.3323 10.6544
1 4.10538 14.1187 9.85916
1 3.32841 13.3668 9.85175
1 4.9122 14.126 10.6544
1 5.7059 13.3323 10.6544
1 5.71475 14.1164 9.85397
1 4.91627 13.3369 9.85368
1 6.4996 14.126 10.6544
1 7.2933 13.3323 10.6544
1 7.28778 14.1102 9.83218
1 6.47974 13.3397 9.84607
1 8.08701 14.126 10.6544
1 8.88071 13.3323 10.6544
1 8.87197 14.1169 9.85497
1 8.07122 13.3265 9.86838
1 9.67441 14.126 10.6544
1 10.4681 13.3323 10.6544
1 10.4894 14.1122 9.84734
1 9.69426 13.3353 9.85512
1 11.2618 14.126 10.6544
1 12.0555 13.3323 10.6544
1 12.0473 14.1247 9.85463
1 11.2565 13.3091 9.88106
1 12.8492 14.126 10.6544
1 13.6429 13.3323 10.6544
1 13.6491 14.1359 9.86349
1 12.8494 13.3439 9.88062
1 14.4366 14.126 10.6544
1 15.2303 13.3323 10.6544
1 15.2545 14.1207 9.84857
1 14.4687 13.3429 9.83823
1 16.024 14.126 10.6544
1 16.8177 13.3323 10.6544
1 16.7896 14.1367 9.86569
1 16.0337 13.3252 9.86295
1 17.6114 14.126 10.6544
1 18.4051 13.3323 10.6544
1 18.3916 14.1285 9.85693
1 17.5893 13.348 9.86026
1 19.1988 14.126 10.6544
1 19.9925 13.3323 10.6544
1 19.9771 14.1104 9.88045
1 19.1964 13.3181 9.85707
1 20.7862 14.126 10.6544
1 21.5799 13.3323 10.6544
1 21.5742 14.144 9.85552
1 20.7931 13.3358 9.86729
1 22.3736 14.126 10.6544
1 23.1673 13.3323 10.6544
1 23.17 14.1458 9.88516
1 22.3674 13.3477 9.85754
1 23.961 14.126 10.6544
1 24.7547 13.3323 10.6544
1 24.767 14.1293 9.87704
1 23.9375 13.354 9.8573
1 25.5484 14.126 10.6544
1 26.3421 13.3323 10.6544
1 26.3518 14.125 9.84878
1 25.5182 13.3212 9.86938
1 27.1358 14.126 10.6544
1 27.9295 13.3323 10.6544
1 27.9116 14.1172 9.861
1 27.13 13.3121 9.86075
1 28.7232 14.126 10.6544
1 29.5169 13.3323 10.6544
1 29.445 14.1359 9.83735
1 28.699 13.3397 9.83735
1 0.15 12.5386 10.6544
1 0.943701 11.7449 10.6544
1 0.986925 12.5219 9.84829
1 0.21942 11.7505 9.81997
1 1.7374 12.5386 10.6544
1 2.5311 11.7449 10.6544
1 2.56381 12.5396 9.84248
1 1.74292 11.7436 9.86067
1 3.3248 12.5386 10.6544
1 4.1185 11.7449 10.6544
1 4.11397 12.5391 9.84972
1 3.34095 11.7273 9.8639
1 4.9122 12.5386 10.6544
1 5.7059 11.7449 10.6544
1 5.67776 12.5215 9.86493
1 4.90609 11.736 9.86407
1 6.4996 12.5386 10.6544
1 7.2933 11.7449 10.6544
1 7.30502 12.5309 9.85804
1 6.49069 11.7448 9.84912
1 8.08701 12.5386 10.6544
1 8.88071 11.7449 10.6544
1 8.89183 12.5469 9.85286
1 8.10215 11.7375 9.86905
1 9.67441 12.5386 10.6544
1 10.4681 11.7449 10.6544
1 10.4471 12.5291 9.87397
1 9.68739 11.7452 9.87482
1 11.2618 12.5386 10.6544
1 12.0555 11.7449 10.6544
1 12.0713 12.5168 9.86812
1 11.2644 11.7473 9.87717
1 12.8492 12.5386 10.6544
1 13.6429 11.7449 10.6544
1 13.6319 12.5461 9.85909
1 12.8695 11.7268 9.86824
1 14.4366 12.5386 10.6544
1 15.2303 11.7449 10.6544
1 15.2412 12.5375 9.86798
1 14.4411 11.7292 9.86234
1 16.024 12.5386 10.6544
1 16.8177 11.7449 10.6544
1 16.8391 12.5311 9.84871
1 16.0159 11.7255 9.86093
1 17.6114 12.5386 10.6544
1 18.4051 11.7449 10.6544
1 18.4026 12.5323 9.83987
1 17.6183 11.7566 9.86295
1 19.1988 12.5386 10.6544
1 19.9925 11.7449 10.6544
1 19.9926 12.5367 9.8544
1 19.1933 11.7445 9.86579
1 20.7862 12.5386 10.6544
1 21.5799 11.7449 10.6544
1 21.5825 12.5147 9.87621
1 20.7927 11.7302 9.8619
1 22.3736 12.5386 10.6544
1 23.1673 11.7449 10.6544
1 23.1392 12.5435 9.86521
1 22.3781 11.7524 9.84559
1 23.961 12.5386 10.6544
1 24.7547 11.7449 10.6544
1 24.7013 12.5512 9.88385
1 23.9415 11.7685 9.86083
1 25.5484 12.5386 10.6544
1 26.3421 11.7449 10.6544
1 26.3212 12.5439 9.85116
1 25.529 11.7408 9.85639
1 27.1358 12.5386 10.6544
1 27.9295 11.7449 10.6544
1 27.9047 12.5288 9.8455
1 27.1305 11.7663 9.86527
1 28.7232 12.5386 10.6544
1 29.5169 11.7449 10.6544
1 29.4577 12.5384 9.83295
1 28.6853 11.7816 9.86291
1 0.15 10.9512 10.6544
1 0.943701 10.1575 10.6544
1 0.963651 10.9277 9.84744
1 0.190711 10.1628 9.83627
1 1.7374 10.9512 10.6544
1 2.5311 10.1575 10.6544
1 2.52722 10.9319 9.86034
1 1.75286 10.1405 9.85074
1 3.3248 10.9512 10.6544
1 4.1185 10.1575 10.6544
1 4.13366 10.9094 9.8632
1 3.31394 10.1428 9.87144
1 4.9122 10.9512 10.6544
1 5.7059 10.1575 10.6544
1 5.70848 10.9453 9.85786
1 4.9354 10.1664 9.8789
1 6.4996 10.9512 10.6544
1 7.2933 10.1575 10.6544
1 7.29623 10.9246 9.88434
1 6.47461 10.1501 9.85054
1 8.08701 10.9512 10.6544
1 8.88071 10.1575 10.6544
1 8.86173 10.9423 9.87144
1 8.08627 10.1474 9.85817
1 9.67441 10.9512 10.6544
1 10.4681 10.1575 10.6544
1 10.4842 10.9615 9.87545
1 9.68311 10.1734 9.85703
1 11.2618 10.9512 10.6544
1 12.0555 10.1575 10.6544
1 12.0557 10.9387 9.84385
1 11.2665 10.1283 9.85094
1 12.8492 10.9512 10.6544
1 13.6429 10.1575 10.6544
1 13.6493 10.949 9.87134
1 12.8379 10.1678 9.84857
1 14.4366 10.9512 10.6544
1 15.2303 10.1575 10.6544
1 15.2198 10.948 9.85409
1 14.4333 10.1454 9.85616
1 16.024 10.9512 10.6544
1 16.8177 10.1575 10.6544
1 16.8324 10.9583 9.86587
1 16.0321 10.141 9.83824
1 17.6114 10.9512 10.6544
1 18.4051 10.1575 10.6544
1 18.3824 10.9544 9.86378
1 17.6251 10.1596 9.85614
1 19.1988 10.9512 10.6544
1 19.9925 10.1575 10.6544
1 19.9801 10.9522 9.87324
1 19.194 10.1696 9.86455
1 20.7862 10.9512 10.6544
1 21.5799 10.1575 10.6544
1 21.613 10.963 9.87046
1 20.7927 10.1713 9.8508
1 22.3736 10.9512 10.6544
1 23.1673 10.1575 10.6544
1 23.1701 10.9557 9.8549
1 22.3638 10.1785 9.86214
1 23.961 10.9512 10.6544
1 24.7547 10.1575 10.6544
1 24.7437 10.9564 9.8938
1 23.9659 10.1767 9.87032
1 25.5484 10.9512 10.6544
1 26.3421 10.1575 10.6544
1 26.3475 10.9741 9.90622
1 25.5364 10.1643 9.84925
1 27.1358 10.9512 10.6544
1 27.9295 10.1575 10.6544
1 27.9152 10.9512 9.8551
1 27.1202 10.1621 9.85567
1 28.7232 10.9512 10.6544
1 29.5169 10.1575 10.6544
1 29.4567 10.9518 9.84293
1 28.6974 10.1418 9.86009
1 0.15 9.36379 10.6544
1 0.943701 8.57009 10.6544
1 0.973782 9.37082 9.83346
1 0.22392 8.5827 9.82492
1 1.7374 9.36379 10.6544
1 2.5311 8.57009 10.6544
1 2.53561 9.35242 9.82634
1 1.74045 8.56314 9.87012
1 3.3248 9.36379 10.6544
1 4.1185 8.57009 10.6544
1 4.11485 9.36907 9.85782
1 3.34479 8.55972 9.85221
1 4.9122 9.36379 10.6544
1 5.7059 8.57009 10.6544
1 5.6944 9.37336 9.86807
1 4.92056 8.58069 9.8753
1 6.4996 9.36379 10.6544
1 7.2933 8.57009 10.6544
1 7.29415 9.3538 9.85692
1 6.50644 8.55981 9.86639
1 8.08701 9.36379 10.6544
1 8.88071 8.57009 10.6544
1 8.86584 9.35156 9.87373
1 8.0695 8.55857 9.85018
1 9.67441 9.36379 10.6544
1 10.4681 8.57009 10.6544
1 10.4748 9.34736 9.8739
1 9.66294 8.5704 9.85371
1 11.2618 9.36379 10.6544
1 12.0555 8.57009 10.6544
1 12.0553 9.35034 9.85713
1 11.2569 8.57753 9.88476
1 12.8492 9.36379 10.6544
1 13.6429 8.57009 10.6544
1 13.638 9.35758 9.87605
1 12.8452 8.58982 9.87687
1 14.4366 9.36379 10.6544
1 15.2303 8.57009 10.6544
1 15.2568 9.33422 9.84617
1 14.4326 8.58467 9.85795
1 16.024 9.36379 10.6544
1 16.8177 8.57009 10.6544
1 16.8064 9.36288 9.86053
1 16.0298 8.56961 9.87679
1 17.6114 9.36379 10.6544
1 18.4051 8.57009 10.6544
1 18.4334 9.37136 9.85587
1 17.6192 8.58606 9.84585
1 19.1988 9.36379 10.6544
1 19.9925 8.57009 10.6544
1 19.9986 9.36445 9.87145
1 19.1975 8.54997 9.88517
1 20.7862 9.36379 10.6544
1 21.5799 8.57009 10.6544
1 21.5807 9.37188 9.88291
1 20.7975 8.58 9.86664
1 22.3736 9.36379 10.6544
1 23.1673 8.57009 10.6544
1 23.1743 9.3715 9.86774
1 22.3725 8.57514 9.8894
1 23.961 9.36379 10.6544
1 24.7547 8.57009 10.6544
1 24.7337 9.3691 9.87246
1 23.9573 8.5707 9.85504
1 25.5484 9.36379 10.6544
1 26.3421 8.57009 10.6544
1 26.3109 9.36807 9.86029
1 25.5322 8.5574 9.84787
1 27.1358 9.36379 10.6544
1 27.9295 8.57009 10.6544
1 27.8991 9.38477 9.87434
1 27.1157 8.58896 9.87288
1 28.7232 9.36379 10.6544
1 29.5169 8.57009 10.6544
1 29.4583 9.35021 9.85547
1 28.7049 8.56142 9.89467
1 0.15 7.77639 10.6544
1 0.943701 6.98268 10.6544
1 0.967999 7.76251 9.8398
1 0.225401 6.99535 9.84264
1 1.7374 7.77639 10.6544
1 2.5311 6.98268 10.6544
1 2.5665 7.76618 9.86498
1 1.75757 7.00924 9.86121
1 3.3248 7.77639 10.6544
1 4.1185 6.98268 10.6544
1 4.13432 7.7713 9.86165
1 3.33466 6.99087 9.83541
1 4.9122 7.77639 10.6544
1 5.7059 6.98268 10.6544
1 5.70232 7.75811 9.88165
1 4.92398 6.98391 9.85048
1 6.4996 7.77639 10.6544
1 7.2933 6.98268 10.6544
1 7.31271 7.76866 9.86174
1 6.49007 6.9792 9.87305
1 8.08701 7.77639 10.6544
1 8.88071 6.98268 10.6544
1 8.87879 7.78406 9.84959
1 8.08415 6.99377 9.86575
1 9.67441 7.77639 10.6544
1 10.4681 6.98268 10.6544
1 10.4622 7.78718 9.87766
1 9.69277 6.9826 9.86598
1 11.2618 7.77639 10.6544
1 12.0555 6.98268 10.6544
1 12.0518 7.76911 9.87938
1 11.2612 6.98359 9.8467
1 12.8492 7.77639 10.6544
1 13.6429 6.98268 10.6544
1 13.624 7.78026 9.87817
1 12.8271 6.95035 9.85239
1 14.4366 7.77639 10.6544
1 15.2303 6.98268 10.6544
1 15.2346 7.77245 9.83995
1 14.4302 6.97234 9.87167
1 16.024 7.77639 10.6544
1 16.8177 6.98268 10.6544
1 16.8155 7.78421 9.84342
1 16.0318 7.00096 9.86971
1 17.6114 7.77639 10.6544
1 18.4051 6.98268 10.6544
1 18.4211 7.78124 9.84864
1 17.6151 6.9825 9.87105
1 19.1988 7.77639 10.6544
1 19.9925 6.98268 10.6544
1 19.9904 7.78811 9.87783
1 19.2086 6.99921 9.87075
1 20.7862 7.77639 10.6544
1 21.5799 6.98268 10.6544
1 21.5871 7.7645 9.88433
1 20.7853 7.00922 9.88088
1 22.3736 7.77639 10.6544
1 23.1673 6.98268 10.6544
1 23.1721 7.78615 9.85915
1 22.3813 6.96762 9.86155
1 23.961 7.77639 10.6544
1 24.7547 6.98268 10.6544
1 24.7514 7.78018 9.8651
1 23.9797 6.99084 9.86031
1 25.5484 7.77639 10.6544
1 26.3421 6.98268 10.6544
1 26.3328 7.79107 9.86905
1 25.5522 6.96759 9.85462
1 27.1358 7.77639 10.6544
1 27.9295 6.98268 10.6544
1 27.905 7.78099 9.85876
1 27.1056 6.98646 9.86003
1 28.7232 7.77639 10.6544
1 29.5169 6.98268 10.6544
1 29.4534 7.79092 9.83866
1 28.7004 6.98491 9.8454
1 0.15 6.18898 10.6544
1 0.943701 5.39528 10.6544
1 0.987962 6.19346 9.86492
1 0.202759 5.39223 9.84503
1 1.7374 6.18898 10.6544
1 2.5311 5.39528 10.6544
1 2.56048 6.16394 9.86518
1 1.73095 5.41085 9.86998
1 3.3248 6.18898 10.6544
1 4.1185 5.39528 10.6544
1 4.13763 6.20464 9.87185
1 3.34168 5.3938 9.88105
1 4.9122 6.18898 10.6544
1 5.7059 5.39528 10.6544
1 5.71535 6.18622 9.83011
1 4.91004 5.3975 9.88781
1 6.4996 6.18898 10.6544
1 7.2933 5.39528 10.6544
1 7.26725 6.17512 9.86415
1 6.50224 5.41491 9.86884
1 8.08701 6.18898 10.6544
1 8.88071 5.39528 10.6544
1 8.8869 6.18157 9.88529
1 8.07892 5.40435 9.89645
1 9.67441 6.18898 10.6544