LAMMPS (5 Jun 2019)
OMP_NUM_THREADS environment is not set. Defaulting to 1 thread. (src/comm.cpp:88)
  using 1 OpenMP thread(s) per MPI task
#--- Brush Variables---#
variable      f      equal  1                  # System Size Scaling Factor
variable      M      equal  $(v_f * 60)        # The number of polymer chains on each brush
variable      M      equal  60        
variable      N      string 30                 # The number of beads per chain
variable      xhi    equal  $(sqrt(v_f) * 30)  # The width of the polymer Brush
variable      xhi    equal  30  
variable      yhi    equal  $(sqrt(v_f) * 30)   # The length of the polymer Brush
variable      yhi    equal  30   
variable      wthick equal  3                  # The thickness of the walls wthick=1,2,3,4 gives 2,3,4,6 layers respectively

#--- Simulation Variables ---#
variable       Temp      index 1               # The Temperature of the Thermostats
variable       Tstep     equal 0.005           # Timestep in Tau (default = 0.005)
variable       Nequil    equal 30000          # Number of timesteps to equilibrate
variable       Ncomp     equal 70000          # Number of timesteps to compress - until no more oscillation of D
variable       Nshear    equal 40000         # Number of timesteps to shear
variable       Nthermo   equal 1000            # Number of timesteps between thermo data prints
variable       Ndump_e   equal 10000
variable       Ndump_c   equal 10000           # Number of timesteps per dump file (compression)
variable       Ndump_s   equal 10000           # Number of timesteps per dump file (shear)
variable       Vwalli    index 1 2             # Relative wall Velocities (10^-3)
variable       Pcomp     index 1 # 0.5 2 0.05 4 8                               # Compressive Pressures applied to top wall
variable       Vscale    equal 1e-3

include        MDPBB.in
# This is an input script that creates a mono disperse polymer brush bilayer
# A coarse grained bead-spring model is used for the polymers which are end
# grafted to the surfaces of 2 opposing FCC walls at random sites.

#--- Initialization ---#

dimension     3
boundary      p p f
units         lj
atom_style    bond


#--- Moved to main.in ---#
#variable      M      equal  50                # The number of polymer chains on each brush
#variable      N      string 80                # The number of beads per chain
#variable      xhi    equal  15                # The width of the polymer Brush
#variable      yhi    equal  20                # The length of the polymer Brush
#variable      wthick equal  3                 # The thickness of the walls wthick=1,2,3,4 gives 2,3,4,6 layers respectively

variable      zhi    equal  $(1.1 * 2 * v_N + (2 * v_wthick))  # The initial height of the simulation box the value is such that no overlaps occur
variable      zhi    equal  72  
variable      z0     equal  $((v_zhi)/4 - (v_N)/30)          # This is the location at which to place the CoM of the molecule
variable      z0     equal  17          

print "The number of grafted chains = $(v_M)"
The number of grafted chains = 60
print "The number of beads per chain = $(v_N)"
The number of beads per chain = 30

variable      check  equal count(all)         # The number of atoms in the system
variable      ntwall equal count(twall)       # The number of atoms in the top wall
variable      nbwall equal count(bwall)       # The number of atoms in the bottom wall
variable      s equal 234897  #45335              # Seed for the RNG

print "zhi = ${zhi}"
zhi = 72

#--- Create the simulation box ---#

region        sbox block 0 ${xhi} 0 ${yhi} 0 ${zhi}
region        sbox block 0 30 0 ${yhi} 0 ${zhi}
region        sbox block 0 30 0 30 0 ${zhi}
region        sbox block 0 30 0 30 0 72
create_box    4 sbox bond/types 3 extra/bond/per/atom 12 extra/special/per/atom 2
Created orthogonal box = (0 0 0) to (30 30 72)
  1 by 1 by 1 MPI processor grid

mass          1 2.0                   # Wall atoms that are not grafted
mass          2 1.0                   # Grafted bead
mass          3 1.0                   # The rest of the beads on the chain
mass          4 2.0                   # Wall atoms that the chains are grafted to

bond_style    hybrid fene harmonic    # Finitely extensible linearly elastic bond between neighbouring beads
#bond_coeff    1 fene 30.0 1.5 0.0 0.0      # Values obtained from literature [Grest, Galushcko]
bond_coeff    1 fene 30.0 30.0 0.0 0.0
bond_coeff    2 fene 30.0 30.0 0.0 0.0       # This is the grafting bond between the polymer and the wall atom
special_bonds fene                    #
  0 = max # of 1-2 neighbors
  5 = max # of special neighbors
  special bonds CPU = 0.000318 secs
pair_style	  lj/cut 1.122462         # LJ potential with rc=2^1/6
#pair_coeff	  * * 1.0 1.0             # LJ potential acts between all atoms
pair_coeff    1 1 0.0 0.0
pair_coeff    1 2 1.0 1.0
pair_coeff    1 3 1.0 1.0
pair_coeff    2 2 1.0 1.0
pair_coeff    2 3 1.0 1.0
pair_coeff    2 4 1.0 1.0
pair_coeff    3 3 1.0 1.0
pair_coeff    3 4 1.0 1.0
pair_coeff    4 4 0.0 0.0
neighbor      10 bin                  #
neigh_modify  one 4000

#--- Create and read the molecule file ---#
python        BSMolf input 1 $N format i file BSMolf.py
python        BSMolf input 1 30 format i file BSMolf.py
python        BSMolf invoke    # Call the python function with number of beads to write the mol file
molecule      bs     bsmol.txt     # Read the Mol file to define the polymer chain
Read molecule bs:
  30 atoms with max type 2
  29 bonds with max type 1
  0 angles with max type 0
  0 dihedrals with max type 0
  0 impropers with max type 0

#--- Define the FCC wall region ---#
region        wall  block 0 ${xhi} 0 ${yhi} 0 ${wthick}
region        wall  block 0 30 0 ${yhi} 0 ${wthick}
region        wall  block 0 30 0 30 0 ${wthick}
region        wall  block 0 30 0 30 0 3
lattice       fcc 1
Lattice spacing in x,y,z = 1.5874 1.5874 1.5874

#--- Create the Top Brush  (At the bottom then rotate 180 degrees to top) ---#

create_atoms  1 region wall
Created 2888 atoms
  create_atoms CPU = 0.0014683 secs
group         twall  region wall
2888 atoms in group twall
#group         tsurf  region wsurf

# A loop to insert the Chains into the sim box
variable      i loop $M                                   # Index to insert N total number of chains
variable      i loop 60                                   
label         loop                                        # Start of loop
variable      randni equal round(random(1,${ntwall},$s))  # Pick a random "top" wall atom
variable      randni equal round(random(1,2888,$s))  
variable      randni equal round(random(1,2888,234897))  
variable      randatomi equal ${randni}                   # This is to obtain an integer number for atom-id
variable      randatomi equal 1814                   
variable      randzi equal z[${randatomi}]                # Determine the z coordinate of the chosen atom
variable      randzi equal z[1814]                
# if the chosen atom is not a surface atom then restart the loop
if            "${randzi} < $(v_wthick - 0.7)" then "jump MDPBB.in loop"
jump MDPBB.in loop
variable      randni equal round(random(1,${ntwall},$s))  # Pick a random "top" wall atom
variable      randni equal round(random(1,2888,$s))  
variable      randni equal round(random(1,2888,234897))  
variable      randatomi equal ${randni}                   # This is to obtain an integer number for atom-id
variable      randatomi equal 455                   
variable      randzi equal z[${randatomi}]                # Determine the z coordinate of the chosen atom
variable      randzi equal z[455]                
# if the chosen atom is not a surface atom then restart the loop
if            "${randzi} < $(v_wthick - 0.7)" then "jump MDPBB.in loop"
jump MDPBB.in loop
variable      randni equal round(random(1,${ntwall},$s))  # Pick a random "top" wall atom
variable      randni equal round(random(1,2888,$s))  
variable      randni equal round(random(1,2888,234897))  
variable      randatomi equal ${randni}                   # This is to obtain an integer number for atom-id
variable      randatomi equal 2182                   
variable      randzi equal z[${randatomi}]                # Determine the z coordinate of the chosen atom
variable      randzi equal z[2182]                
# if the chosen atom is not a surface atom then restart the loop
if            "${randzi} < $(v_wthick - 0.7)" then "jump MDPBB.in loop"
jump MDPBB.in loop
variable      randni equal round(random(1,${ntwall},$s))  # Pick a random "top" wall atom
variable      randni equal round(random(1,2888,$s))  
variable      randni equal round(random(1,2888,234897))  
variable      randatomi equal ${randni}                   # This is to obtain an integer number for atom-id
variable      randatomi equal 2201                   
variable      randzi equal z[${randatomi}]                # Determine the z coordinate of the chosen atom
variable      randzi equal z[2201]                
# if the chosen atom is not a surface atom then restart the loop
if            "${randzi} < $(v_wthick - 0.7)" then "jump MDPBB.in loop"
jump MDPBB.in loop
variable      randni equal round(random(1,${ntwall},$s))  # Pick a random "top" wall atom
variable      randni equal round(random(1,2888,$s))  
variable      randni equal round(random(1,2888,234897))  
variable      randatomi equal ${randni}                   # This is to obtain an integer number for atom-id
variable      randatomi equal 2098                   
variable      randzi equal z[${randatomi}]                # Determine the z coordinate of the chosen atom
variable      randzi equal z[2098]                
# if the chosen atom is not a surface atom then restart the loop
if            "${randzi} < $(v_wthick - 0.7)" then "jump MDPBB.in loop"
jump MDPBB.in loop
variable      randni equal round(random(1,${ntwall},$s))  # Pick a random "top" wall atom
variable      randni equal round(random(1,2888,$s))  
variable      randni equal round(random(1,2888,234897))  
variable      randatomi equal ${randni}                   # This is to obtain an integer number for atom-id
variable      randatomi equal 2845                   
variable      randzi equal z[${randatomi}]                # Determine the z coordinate of the chosen atom
variable      randzi equal z[2845]                
# if the chosen atom is not a surface atom then restart the loop
if            "${randzi} < $(v_wthick - 0.7)" then "jump MDPBB.in loop"
jump MDPBB.in loop
variable      randni equal round(random(1,${ntwall},$s))  # Pick a random "top" wall atom
variable      randni equal round(random(1,2888,$s))  
variable      randni equal round(random(1,2888,234897))  
variable      randatomi equal ${randni}                   # This is to obtain an integer number for atom-id
variable      randatomi equal 1373                   
variable      randzi equal z[${randatomi}]                # Determine the z coordinate of the chosen atom
variable      randzi equal z[1373]                
# if the chosen atom is not a surface atom then restart the loop
if            "${randzi} < $(v_wthick - 0.7)" then "jump MDPBB.in loop"
jump MDPBB.in loop
variable      randni equal round(random(1,${ntwall},$s))  # Pick a random "top" wall atom
variable      randni equal round(random(1,2888,$s))  
variable      randni equal round(random(1,2888,234897))  
variable      randatomi equal ${randni}                   # This is to obtain an integer number for atom-id
variable      randatomi equal 968                   
variable      randzi equal z[${randatomi}]                # Determine the z coordinate of the chosen atom
variable      randzi equal z[968]                
# if the chosen atom is not a surface atom then restart the loop
if            "${randzi} < $(v_wthick - 0.7)" then "jump MDPBB.in loop"
jump MDPBB.in loop
variable      randni equal round(random(1,${ntwall},$s))  # Pick a random "top" wall atom
variable      randni equal round(random(1,2888,$s))  
variable      randni equal round(random(1,2888,234897))  
variable      randatomi equal ${randni}                   # This is to obtain an integer number for atom-id
variable      randatomi equal 1250                   
variable      randzi equal z[${randatomi}]                # Determine the z coordinate of the chosen atom
variable      randzi equal z[1250]                
# if the chosen atom is not a surface atom then restart the loop
if            "${randzi} < $(v_wthick - 0.7)" then "jump MDPBB.in loop"
jump MDPBB.in loop
variable      randni equal round(random(1,${ntwall},$s))  # Pick a random "top" wall atom
variable      randni equal round(random(1,2888,$s))  
variable      randni equal round(random(1,2888,234897))  
variable      randatomi equal ${randni}                   # This is to obtain an integer number for atom-id
variable      randatomi equal 2090                   
variable      randzi equal z[${randatomi}]                # Determine the z coordinate of the chosen atom
variable      randzi equal z[2090]                
# if the chosen atom is not a surface atom then restart the loop
if            "${randzi} < $(v_wthick - 0.7)" then "jump MDPBB.in loop"
jump MDPBB.in loop
variable      randni equal round(random(1,${ntwall},$s))  # Pick a random "top" wall atom
variable      randni equal round(random(1,2888,$s))  
variable      randni equal round(random(1,2888,234897))  
variable      randatomi equal ${randni}                   # This is to obtain an integer number for atom-id
variable      randatomi equal 2586                   
variable      randzi equal z[${randatomi}]                # Determine the z coordinate of the chosen atom
variable      randzi equal z[2586]                
# if the chosen atom is not a surface atom then restart the loop
if            "${randzi} < $(v_wthick - 0.7)" then "jump MDPBB.in loop"
jump MDPBB.in loop
variable      randni equal round(random(1,${ntwall},$s))  # Pick a random "top" wall atom
variable      randni equal round(random(1,2888,$s))  
variable      randni equal round(random(1,2888,234897))  
variable      randatomi equal ${randni}                   # This is to obtain an integer number for atom-id
variable      randatomi equal 21                   
variable      randzi equal z[${randatomi}]                # Determine the z coordinate of the chosen atom
variable      randzi equal z[21]                
# if the chosen atom is not a surface atom then restart the loop
if            "${randzi} < $(v_wthick - 0.7)" then "jump MDPBB.in loop"
jump MDPBB.in loop
variable      randni equal round(random(1,${ntwall},$s))  # Pick a random "top" wall atom
variable      randni equal round(random(1,2888,$s))  
variable      randni equal round(random(1,2888,234897))  
variable      randatomi equal ${randni}                   # This is to obtain an integer number for atom-id
variable      randatomi equal 550                   
variable      randzi equal z[${randatomi}]                # Determine the z coordinate of the chosen atom
variable      randzi equal z[550]                
# if the chosen atom is not a surface atom then restart the loop
if            "${randzi} < $(v_wthick - 0.7)" then "jump MDPBB.in loop"
jump MDPBB.in loop
variable      randni equal round(random(1,${ntwall},$s))  # Pick a random "top" wall atom
variable      randni equal round(random(1,2888,$s))  
variable      randni equal round(random(1,2888,234897))  
variable      randatomi equal ${randni}                   # This is to obtain an integer number for atom-id
variable      randatomi equal 944                   
variable      randzi equal z[${randatomi}]                # Determine the z coordinate of the chosen atom
variable      randzi equal z[944]                
# if the chosen atom is not a surface atom then restart the loop
if            "${randzi} < $(v_wthick - 0.7)" then "jump MDPBB.in loop"
jump MDPBB.in loop
variable      randni equal round(random(1,${ntwall},$s))  # Pick a random "top" wall atom
variable      randni equal round(random(1,2888,$s))  
variable      randni equal round(random(1,2888,234897))  
variable      randatomi equal ${randni}                   # This is to obtain an integer number for atom-id
variable      randatomi equal 2340                   
variable      randzi equal z[${randatomi}]                # Determine the z coordinate of the chosen atom
variable      randzi equal z[2340]                
# if the chosen atom is not a surface atom then restart the loop
if            "${randzi} < $(v_wthick - 0.7)" then "jump MDPBB.in loop"
set           atom ${randatomi} type 4                    # Set this grafted wall atom as a new type
set           atom 2340 type 4                    
  1 settings made for type
group         twg id ${randatomi}                         # Add this atom to a top-wall-grafted group
group         twg id 2340                         
1 atoms in group twg
variable      twgcount equal count(twg)
print         "twg contains ${twgcount}"
twg contains 1
print         "i = $(v_i)"                                # The index i should always be equal to the number of atom in twg
i = 1
variable      x0 equal x[${randatomi}]                    # Determine its x-coord
variable      x0 equal x[2340]                    
variable      y0 equal y[${randatomi}]                    # Determine its y-coord
variable      y0 equal y[2340]                    
variable      check0 equal ${check}                       # Count the number of atoms in the simulation
variable      check0 equal 2888                       
variable      b equal ${check}+1                          # The grafted bead id will be one higher after being inserted
variable      b equal 2888+1                          
if            "${twgcount} != $(v_i)" then "jump MDPBB.in loop"
# Otherwise insert the chain directly above the chosen wall atom pointing perpendicular to the wall
create_atoms  1 single ${x0} ${y0} ${z0} mol bs 24987 units box remap yes rotate 0 0 0 1
create_atoms  1 single 22.2236147275548 ${y0} ${z0} mol bs 24987 units box remap yes rotate 0 0 0 1
create_atoms  1 single 22.2236147275548 18.2551120976343 ${z0} mol bs 24987 units box remap yes rotate 0 0 0 1
create_atoms  1 single 22.2236147275548 18.2551120976343 17 mol bs 24987 units box remap yes rotate 0 0 0 1
Created 30 atoms
  create_atoms CPU = 0.0001225 secs
variable      check1 equal ${check}               # Count the new total number of atoms
variable      check1 equal 2918               
# Check that the molecule has indeed been inserted (This check is no longer an issue).
if            "${check1} != ${check0}" then "create_bonds  single/bond 2 ${randatomi} $b" "next i"
create_bonds  single/bond 2 ${randatomi} $b
create_bonds  single/bond 2 2340 $b
create_bonds  single/bond 2 2340 2889
  2 = max # of 1-2 neighbors
  5 = max # of special neighbors
  special bonds CPU = 0.0042397 secs
next i
jump MDPBB.in loop    # End of the loop
variable      randni equal round(random(1,${ntwall},$s))  # Pick a random "top" wall atom
variable      randni equal round(random(1,2888,$s))  
variable      randni equal round(random(1,2888,234897))  
variable      randatomi equal ${randni}                   # This is to obtain an integer number for atom-id
variable      randatomi equal 2049                   
variable      randzi equal z[${randatomi}]                # Determine the z coordinate of the chosen atom
variable      randzi equal z[2049]                
# if the chosen atom is not a surface atom then restart the loop
if            "${randzi} < $(v_wthick - 0.7)" then "jump MDPBB.in loop"
jump MDPBB.in loop
variable      randni equal round(random(1,${ntwall},$s))  # Pick a random "top" wall atom
variable      randni equal round(random(1,2888,$s))  
variable      randni equal round(random(1,2888,234897))  
variable      randatomi equal ${randni}                   # This is to obtain an integer number for atom-id
variable      randatomi equal 1989                   
variable      randzi equal z[${randatomi}]                # Determine the z coordinate of the chosen atom
variable      randzi equal z[1989]                
# if the chosen atom is not a surface atom then restart the loop
if            "${randzi} < $(v_wthick - 0.7)" then "jump MDPBB.in loop"
jump MDPBB.in loop
variable      randni equal round(random(1,${ntwall},$s))  # Pick a random "top" wall atom
variable      randni equal round(random(1,2888,$s))  
variable      randni equal round(random(1,2888,234897))  
variable      randatomi equal ${randni}                   # This is to obtain an integer number for atom-id
variable      randatomi equal 1613                   
variable      randzi equal z[${randatomi}]                # Determine the z coordinate of the chosen atom
variable      randzi equal z[1613]                
# if the chosen atom is not a surface atom then restart the loop
if            "${randzi} < $(v_wthick - 0.7)" then "jump MDPBB.in loop"
jump MDPBB.in loop
variable      randni equal round(random(1,${ntwall},$s))  # Pick a random "top" wall atom
variable      randni equal round(random(1,2888,$s))  
variable      randni equal round(random(1,2888,234897))  
variable      randatomi equal ${randni}                   # This is to obtain an integer number for atom-id
variable      randatomi equal 2250                   
variable      randzi equal z[${randatomi}]                # Determine the z coordinate of the chosen atom
variable      randzi equal z[2250]                
# if the chosen atom is not a surface atom then restart the loop
if            "${randzi} < $(v_wthick - 0.7)" then "jump MDPBB.in loop"
jump MDPBB.in loop
variable      randni equal round(random(1,${ntwall},$s))  # Pick a random "top" wall atom
variable      randni equal round(random(1,2888,$s))  
variable      randni equal round(random(1,2888,234897))  
variable      randatomi equal ${randni}                   # This is to obtain an integer number for atom-id
variable      randatomi equal 1777                   
variable      randzi equal z[${randatomi}]                # Determine the z coordinate of the chosen atom
variable      randzi equal z[1777]                
# if the chosen atom is not a surface atom then restart the loop
if            "${randzi} < $(v_wthick - 0.7)" then "jump MDPBB.in loop"
jump MDPBB.in loop
variable      randni equal round(random(1,${ntwall},$s))  # Pick a random "top" wall atom
variable      randni equal round(random(1,2888,$s))  
variable      randni equal round(random(1,2888,234897))  
variable      randatomi equal ${randni}                   # This is to obtain an integer number for atom-id
variable      randatomi equal 1790                   
variable      randzi equal z[${randatomi}]                # Determine the z coordinate of the chosen atom
variable      randzi equal z[1790]                
# if the chosen atom is not a surface atom then restart the loop
if            "${randzi} < $(v_wthick - 0.7)" then "jump MDPBB.in loop"
jump MDPBB.in loop
variable      randni equal round(random(1,${ntwall},$s))  # Pick a random "top" wall atom
variable      randni equal round(random(1,2888,$s))  
variable      randni equal round(random(1,2888,234897))  
variable      randatomi equal ${randni}                   # This is to obtain an integer number for atom-id
variable      randatomi equal 346                   
variable      randzi equal z[${randatomi}]                # Determine the z coordinate of the chosen atom
variable      randzi equal z[346]                
# if the chosen atom is not a surface atom then restart the loop
if            "${randzi} < $(v_wthick - 0.7)" then "jump MDPBB.in loop"
jump MDPBB.in loop
variable      randni equal round(random(1,${ntwall},$s))  # Pick a random "top" wall atom
variable      randni equal round(random(1,2888,$s))  
variable      randni equal round(random(1,2888,234897))  
variable      randatomi equal ${randni}                   # This is to obtain an integer number for atom-id
variable      randatomi equal 2515                   
variable      randzi equal z[${randatomi}]                # Determine the z coordinate of the chosen atom
variable      randzi equal z[2515]                
# if the chosen atom is not a surface atom then restart the loop
if            "${randzi} < $(v_wthick - 0.7)" then "jump MDPBB.in loop"
set           atom ${randatomi} type 4                    # Set this grafted wall atom as a new type
set           atom 2515 type 4                    
  1 settings made for type
group         twg id ${randatomi}                         # Add this atom to a top-wall-grafted group
group         twg id 2515                         
2 atoms in group twg
variable      twgcount equal count(twg)
print         "twg contains ${twgcount}"
twg contains 2
print         "i = $(v_i)"                                # The index i should always be equal to the number of atom in twg
i = 2
variable      x0 equal x[${randatomi}]                    # Determine its x-coord
variable      x0 equal x[2515]                    
variable      y0 equal y[${randatomi}]                    # Determine its y-coord
variable      y0 equal y[2515]                    
variable      check0 equal ${check}                       # Count the number of atoms in the simulation
variable      check0 equal 2918                       
variable      b equal ${check}+1                          # The grafted bead id will be one higher after being inserted
variable      b equal 2918+1                          
if            "${twgcount} != $(v_i)" then "jump MDPBB.in loop"
# Otherwise insert the chain directly above the chosen wall atom pointing perpendicular to the wall
create_atoms  1 single ${x0} ${y0} ${z0} mol bs 24987 units box remap yes rotate 0 0 0 1
create_atoms  1 single 2.3811015779523 ${y0} ${z0} mol bs 24987 units box remap yes rotate 0 0 0 1
create_atoms  1 single 2.3811015779523 22.2236147275548 ${z0} mol bs 24987 units box remap yes rotate 0 0 0 1
create_atoms  1 single 2.3811015779523 22.2236147275548 17 mol bs 24987 units box remap yes rotate 0 0 0 1
Created 30 atoms
  create_atoms CPU = 6.55e-05 secs
variable      check1 equal ${check}               # Count the new total number of atoms
variable      check1 equal 2948               
# Check that the molecule has indeed been inserted (This check is no longer an issue).
if            "${check1} != ${check0}" then "create_bonds  single/bond 2 ${randatomi} $b" "next i"
create_bonds  single/bond 2 ${randatomi} $b
create_bonds  single/bond 2 2515 $b
create_bonds  single/bond 2 2515 2919
  2 = max # of 1-2 neighbors
  5 = max # of special neighbors
  special bonds CPU = 0.0024064 secs
next i
jump MDPBB.in loop    # End of the loop
variable      randni equal round(random(1,${ntwall},$s))  # Pick a random "top" wall atom
variable      randni equal round(random(1,2888,$s))  
variable      randni equal round(random(1,2888,234897))  
variable      randatomi equal ${randni}                   # This is to obtain an integer number for atom-id
variable      randatomi equal 1738                   
variable      randzi equal z[${randatomi}]                # Determine the z coordinate of the chosen atom
variable      randzi equal z[1738]                
# if the chosen atom is not a surface atom then restart the loop
if            "${randzi} < $(v_wthick - 0.7)" then "jump MDPBB.in loop"
jump MDPBB.in loop
variable      randni equal round(random(1,${ntwall},$s))  # Pick a random "top" wall atom
variable      randni equal round(random(1,2888,$s))  
variable      randni equal round(random(1,2888,234897))  
variable      randatomi equal ${randni}                   # This is to obtain an integer number for atom-id
variable      randatomi equal 2654                   
variable      randzi equal z[${randatomi}]                # Determine the z coordinate of the chosen atom
variable      randzi equal z[2654]                
# if the chosen atom is not a surface atom then restart the loop
if            "${randzi} < $(v_wthick - 0.7)" then "jump MDPBB.in loop"
jump MDPBB.in loop
variable      randni equal round(random(1,${ntwall},$s))  # Pick a random "top" wall atom
variable      randni equal round(random(1,2888,$s))  
variable      randni equal round(random(1,2888,234897))  
variable      randatomi equal ${randni}                   # This is to obtain an integer number for atom-id
variable      randatomi equal 2013                   
variable      randzi equal z[${randatomi}]                # Determine the z coordinate of the chosen atom
variable      randzi equal z[2013]                
# if the chosen atom is not a surface atom then restart the loop
if            "${randzi} < $(v_wthick - 0.7)" then "jump MDPBB.in loop"
jump MDPBB.in loop
variable      randni equal round(random(1,${ntwall},$s))  # Pick a random "top" wall atom
variable      randni equal round(random(1,2888,$s))  
variable      randni equal round(random(1,2888,234897))  
variable      randatomi equal ${randni}                   # This is to obtain an integer number for atom-id
variable      randatomi equal 2593                   
variable      randzi equal z[${randatomi}]                # Determine the z coordinate of the chosen atom
variable      randzi equal z[2593]                
# if the chosen atom is not a surface atom then restart the loop
if            "${randzi} < $(v_wthick - 0.7)" then "jump MDPBB.in loop"
jump MDPBB.in loop
variable      randni equal round(random(1,${ntwall},$s))  # Pick a random "top" wall atom
variable      randni equal round(random(1,2888,$s))  
variable      randni equal round(random(1,2888,234897))  
variable      randatomi equal ${randni}                   # This is to obtain an integer number for atom-id
variable      randatomi equal 1699                   
variable      randzi equal z[${randatomi}]                # Determine the z coordinate of the chosen atom
variable      randzi equal z[1699]                
# if the chosen atom is not a surface atom then restart the loop
if            "${randzi} < $(v_wthick - 0.7)" then "jump MDPBB.in loop"
set           atom ${randatomi} type 4                    # Set this grafted wall atom as a new type
set           atom 1699 type 4                    
  1 settings made for type
group         twg id ${randatomi}                         # Add this atom to a top-wall-grafted group
group         twg id 1699                         
3 atoms in group twg
variable      twgcount equal count(twg)
print         "twg contains ${twgcount}"
twg contains 3
print         "i = $(v_i)"                                # The index i should always be equal to the number of atom in twg
i = 3
variable      x0 equal x[${randatomi}]                    # Determine its x-coord
variable      x0 equal x[1699]                    
variable      y0 equal y[${randatomi}]                    # Determine its y-coord
variable      y0 equal y[1699]                    
variable      check0 equal ${check}                       # Count the number of atoms in the simulation
variable      check0 equal 2948                       
variable      b equal ${check}+1                          # The grafted bead id will be one higher after being inserted
variable      b equal 2948+1                          
if            "${twgcount} != $(v_i)" then "jump MDPBB.in loop"
# Otherwise insert the chain directly above the chosen wall atom pointing perpendicular to the wall
create_atoms  1 single ${x0} ${y0} ${z0} mol bs 24987 units box remap yes rotate 0 0 0 1
create_atoms  1 single 10.3181068377933 ${y0} ${z0} mol bs 24987 units box remap yes rotate 0 0 0 1
create_atoms  1 single 10.3181068377933 4.7622031559046 ${z0} mol bs 24987 units box remap yes rotate 0 0 0 1
create_atoms  1 single 10.3181068377933 4.7622031559046 17 mol bs 24987 units box remap yes rotate 0 0 0 1
Created 30 atoms
  create_atoms CPU = 5.93e-05 secs
variable      check1 equal ${check}               # Count the new total number of atoms
variable      check1 equal 2978               
# Check that the molecule has indeed been inserted (This check is no longer an issue).
if            "${check1} != ${check0}" then "create_bonds  single/bond 2 ${randatomi} $b" "next i"
create_bonds  single/bond 2 ${randatomi} $b
create_bonds  single/bond 2 1699 $b
create_bonds  single/bond 2 1699 2949
  2 = max # of 1-2 neighbors
  5 = max # of special neighbors
  special bonds CPU = 0.004148 secs
next i
jump MDPBB.in loop    # End of the loop
variable      randni equal round(random(1,${ntwall},$s))  # Pick a random "top" wall atom
variable      randni equal round(random(1,2888,$s))  
variable      randni equal round(random(1,2888,234897))  
variable      randatomi equal ${randni}                   # This is to obtain an integer number for atom-id
variable      randatomi equal 2456                   
variable      randzi equal z[${randatomi}]                # Determine the z coordinate of the chosen atom
variable      randzi equal z[2456]                
# if the chosen atom is not a surface atom then restart the loop
if            "${randzi} < $(v_wthick - 0.7)" then "jump MDPBB.in loop"
set           atom ${randatomi} type 4                    # Set this grafted wall atom as a new type
set           atom 2456 type 4                    
  1 settings made for type
group         twg id ${randatomi}                         # Add this atom to a top-wall-grafted group
group         twg id 2456                         
4 atoms in group twg
variable      twgcount equal count(twg)
print         "twg contains ${twgcount}"
twg contains 4
print         "i = $(v_i)"                                # The index i should always be equal to the number of atom in twg
i = 4
variable      x0 equal x[${randatomi}]                    # Determine its x-coord
variable      x0 equal x[2456]                    
variable      y0 equal y[${randatomi}]                    # Determine its y-coord
variable      y0 equal y[2456]                    
variable      check0 equal ${check}                       # Count the number of atoms in the simulation
variable      check0 equal 2978                       
variable      b equal ${check}+1                          # The grafted bead id will be one higher after being inserted
variable      b equal 2978+1                          
if            "${twgcount} != $(v_i)" then "jump MDPBB.in loop"
# Otherwise insert the chain directly above the chosen wall atom pointing perpendicular to the wall
create_atoms  1 single ${x0} ${y0} ${z0} mol bs 24987 units box remap yes rotate 0 0 0 1
create_atoms  1 single 7.937005259841 ${y0} ${z0} mol bs 24987 units box remap yes rotate 0 0 0 1
create_atoms  1 single 7.937005259841 21.4299142015707 ${z0} mol bs 24987 units box remap yes rotate 0 0 0 1
create_atoms  1 single 7.937005259841 21.4299142015707 17 mol bs 24987 units box remap yes rotate 0 0 0 1
Created 30 atoms
  create_atoms CPU = 8.96e-05 secs
variable      check1 equal ${check}               # Count the new total number of atoms
variable      check1 equal 3008               
# Check that the molecule has indeed been inserted (This check is no longer an issue).
if            "${check1} != ${check0}" then "create_bonds  single/bond 2 ${randatomi} $b" "next i"
create_bonds  single/bond 2 ${randatomi} $b
create_bonds  single/bond 2 2456 $b
create_bonds  single/bond 2 2456 2979
  2 = max # of 1-2 neighbors
  5 = max # of special neighbors
  special bonds CPU = 0.0036633 secs
next i
jump MDPBB.in loop    # End of the loop
variable      randni equal round(random(1,${ntwall},$s))  # Pick a random "top" wall atom
variable      randni equal round(random(1,2888,$s))  
variable      randni equal round(random(1,2888,234897))  
variable      randatomi equal ${randni}                   # This is to obtain an integer number for atom-id
variable      randatomi equal 2420                   
variable      randzi equal z[${randatomi}]                # Determine the z coordinate of the chosen atom
variable      randzi equal z[2420]                
# if the chosen atom is not a surface atom then restart the loop
if            "${randzi} < $(v_wthick - 0.7)" then "jump MDPBB.in loop"
set           atom ${randatomi} type 4                    # Set this grafted wall atom as a new type
set           atom 2420 type 4                    
  1 settings made for type
group         twg id ${randatomi}                         # Add this atom to a top-wall-grafted group
group         twg id 2420                         
5 atoms in group twg
variable      twgcount equal count(twg)
print         "twg contains ${twgcount}"
twg contains 5
print         "i = $(v_i)"                                # The index i should always be equal to the number of atom in twg
i = 5
variable      x0 equal x[${randatomi}]                    # Determine its x-coord
variable      x0 equal x[2420]                    
variable      y0 equal y[${randatomi}]                    # Determine its y-coord
variable      y0 equal y[2420]                    
variable      check0 equal ${check}                       # Count the number of atoms in the simulation
variable      check0 equal 3008                       
variable      b equal ${check}+1                          # The grafted bead id will be one higher after being inserted
variable      b equal 3008+1                          
if            "${twgcount} != $(v_i)" then "jump MDPBB.in loop"
# Otherwise insert the chain directly above the chosen wall atom pointing perpendicular to the wall
create_atoms  1 single ${x0} ${y0} ${z0} mol bs 24987 units box remap yes rotate 0 0 0 1
create_atoms  1 single 23.811015779523 ${y0} ${z0} mol bs 24987 units box remap yes rotate 0 0 0 1
create_atoms  1 single 23.811015779523 19.8425131496025 ${z0} mol bs 24987 units box remap yes rotate 0 0 0 1
create_atoms  1 single 23.811015779523 19.8425131496025 17 mol bs 24987 units box remap yes rotate 0 0 0 1
Created 30 atoms
  create_atoms CPU = 6.42e-05 secs
variable      check1 equal ${check}               # Count the new total number of atoms
variable      check1 equal 3038               
# Check that the molecule has indeed been inserted (This check is no longer an issue).
if            "${check1} != ${check0}" then "create_bonds  single/bond 2 ${randatomi} $b" "next i"
create_bonds  single/bond 2 ${randatomi} $b
create_bonds  single/bond 2 2420 $b
create_bonds  single/bond 2 2420 3009
  2 = max # of 1-2 neighbors
  5 = max # of special neighbors
  special bonds CPU = 0.0045904 secs
next i
jump MDPBB.in loop    # End of the loop
variable      randni equal round(random(1,${ntwall},$s))  # Pick a random "top" wall atom
variable      randni equal round(random(1,2888,$s))  
variable      randni equal round(random(1,2888,234897))  
variable      randatomi equal ${randni}                   # This is to obtain an integer number for atom-id
variable      randatomi equal 1201                   
variable      randzi equal z[${randatomi}]                # Determine the z coordinate of the chosen atom
variable      randzi equal z[1201]                
# if the chosen atom is not a surface atom then restart the loop
if            "${randzi} < $(v_wthick - 0.7)" then "jump MDPBB.in loop"
jump MDPBB.in loop
variable      randni equal round(random(1,${ntwall},$s))  # Pick a random "top" wall atom
variable      randni equal round(random(1,2888,$s))  
variable      randni equal round(random(1,2888,234897))  
variable      randatomi equal ${randni}                   # This is to obtain an integer number for atom-id
variable      randatomi equal 2884                   
variable      randzi equal z[${randatomi}]                # Determine the z coordinate of the chosen atom
variable      randzi equal z[2884]                
# if the chosen atom is not a surface atom then restart the loop
if            "${randzi} < $(v_wthick - 0.7)" then "jump MDPBB.in loop"
set           atom ${randatomi} type 4                    # Set this grafted wall atom as a new type
set           atom 2884 type 4                    
  1 settings made for type
group         twg id ${randatomi}                         # Add this atom to a top-wall-grafted group
group         twg id 2884                         
6 atoms in group twg
variable      twgcount equal count(twg)
print         "twg contains ${twgcount}"
twg contains 6
print         "i = $(v_i)"                                # The index i should always be equal to the number of atom in twg
i = 6
variable      x0 equal x[${randatomi}]                    # Determine its x-coord
variable      x0 equal x[2884]                    
variable      y0 equal y[${randatomi}]                    # Determine its y-coord
variable      y0 equal y[2884]                    
variable      check0 equal ${check}                       # Count the number of atoms in the simulation
variable      check0 equal 3038                       
variable      b equal ${check}+1                          # The grafted bead id will be one higher after being inserted
variable      b equal 3038+1                          
if            "${twgcount} != $(v_i)" then "jump MDPBB.in loop"
# Otherwise insert the chain directly above the chosen wall atom pointing perpendicular to the wall
create_atoms  1 single ${x0} ${y0} ${z0} mol bs 24987 units box remap yes rotate 0 0 0 1
create_atoms  1 single 26.9858178834594 ${y0} ${z0} mol bs 24987 units box remap yes rotate 0 0 0 1
create_atoms  1 single 26.9858178834594 29.3669194614117 ${z0} mol bs 24987 units box remap yes rotate 0 0 0 1
create_atoms  1 single 26.9858178834594 29.3669194614117 17 mol bs 24987 units box remap yes rotate 0 0 0 1
Created 30 atoms
  create_atoms CPU = 7.96e-05 secs
variable      check1 equal ${check}               # Count the new total number of atoms
variable      check1 equal 3068               
# Check that the molecule has indeed been inserted (This check is no longer an issue).
if            "${check1} != ${check0}" then "create_bonds  single/bond 2 ${randatomi} $b" "next i"
create_bonds  single/bond 2 ${randatomi} $b
create_bonds  single/bond 2 2884 $b
create_bonds  single/bond 2 2884 3039
  2 = max # of 1-2 neighbors
  5 = max # of special neighbors
  special bonds CPU = 0.002409 secs
next i
jump MDPBB.in loop    # End of the loop
variable      randni equal round(random(1,${ntwall},$s))  # Pick a random "top" wall atom
variable      randni equal round(random(1,2888,$s))  
variable      randni equal round(random(1,2888,234897))  
variable      randatomi equal ${randni}                   # This is to obtain an integer number for atom-id
variable      randatomi equal 2815                   
variable      randzi equal z[${randatomi}]                # Determine the z coordinate of the chosen atom
variable      randzi equal z[2815]                
# if the chosen atom is not a surface atom then restart the loop
if            "${randzi} < $(v_wthick - 0.7)" then "jump MDPBB.in loop"
set           atom ${randatomi} type 4                    # Set this grafted wall atom as a new type
set           atom 2815 type 4                    
  1 settings made for type
group         twg id ${randatomi}                         # Add this atom to a top-wall-grafted group
group         twg id 2815                         
7 atoms in group twg
variable      twgcount equal count(twg)
print         "twg contains ${twgcount}"
twg contains 7
print         "i = $(v_i)"                                # The index i should always be equal to the number of atom in twg
i = 7
variable      x0 equal x[${randatomi}]                    # Determine its x-coord
variable      x0 equal x[2815]                    
variable      y0 equal y[${randatomi}]                    # Determine its y-coord
variable      y0 equal y[2815]                    
variable      check0 equal ${check}                       # Count the number of atoms in the simulation
variable      check0 equal 3068                       
variable      b equal ${check}+1                          # The grafted bead id will be one higher after being inserted
variable      b equal 3068+1                          
if            "${twgcount} != $(v_i)" then "jump MDPBB.in loop"
# Otherwise insert the chain directly above the chosen wall atom pointing perpendicular to the wall
create_atoms  1 single ${x0} ${y0} ${z0} mol bs 24987 units box remap yes rotate 0 0 0 1
create_atoms  1 single 0.7937005259841 ${y0} ${z0} mol bs 24987 units box remap yes rotate 0 0 0 1
create_atoms  1 single 0.7937005259841 28.5732189354276 ${z0} mol bs 24987 units box remap yes rotate 0 0 0 1
create_atoms  1 single 0.7937005259841 28.5732189354276 17 mol bs 24987 units box remap yes rotate 0 0 0 1
Created 30 atoms
  create_atoms CPU = 0.0001156 secs
variable      check1 equal ${check}               # Count the new total number of atoms
variable      check1 equal 3098               
# Check that the molecule has indeed been inserted (This check is no longer an issue).
if            "${check1} != ${check0}" then "create_bonds  single/bond 2 ${randatomi} $b" "next i"
create_bonds  single/bond 2 ${randatomi} $b
create_bonds  single/bond 2 2815 $b
create_bonds  single/bond 2 2815 3069
  2 = max # of 1-2 neighbors
  5 = max # of special neighbors
  special bonds CPU = 0.0037564 secs
next i
jump MDPBB.in loop    # End of the loop
variable      randni equal round(random(1,${ntwall},$s))  # Pick a random "top" wall atom
variable      randni equal round(random(1,2888,$s))  
variable      randni equal round(random(1,2888,234897))  
variable      randatomi equal ${randni}                   # This is to obtain an integer number for atom-id
variable      randatomi equal 2092                   
variable      randzi equal z[${randatomi}]                # Determine the z coordinate of the chosen atom
variable      randzi equal z[2092]                
# if the chosen atom is not a surface atom then restart the loop
if            "${randzi} < $(v_wthick - 0.7)" then "jump MDPBB.in loop"
set           atom ${randatomi} type 4                    # Set this grafted wall atom as a new type
set           atom 2092 type 4                    
  1 settings made for type
group         twg id ${randatomi}                         # Add this atom to a top-wall-grafted group
group         twg id 2092                         
8 atoms in group twg
variable      twgcount equal count(twg)
print         "twg contains ${twgcount}"
twg contains 8
print         "i = $(v_i)"                                # The index i should always be equal to the number of atom in twg
i = 8
variable      x0 equal x[${randatomi}]                    # Determine its x-coord
variable      x0 equal x[2092]                    
variable      y0 equal y[${randatomi}]                    # Determine its y-coord
variable      y0 equal y[2092]                    
variable      check0 equal ${check}                       # Count the number of atoms in the simulation
variable      check0 equal 3098                       
variable      b equal ${check}+1                          # The grafted bead id will be one higher after being inserted
variable      b equal 3098+1                          
if            "${twgcount} != $(v_i)" then "jump MDPBB.in loop"
# Otherwise insert the chain directly above the chosen wall atom pointing perpendicular to the wall
create_atoms  1 single ${x0} ${y0} ${z0} mol bs 24987 units box remap yes rotate 0 0 0 1
create_atoms  1 single 14.2866094677138 ${y0} ${z0} mol bs 24987 units box remap yes rotate 0 0 0 1
create_atoms  1 single 14.2866094677138 13.4929089417297 ${z0} mol bs 24987 units box remap yes rotate 0 0 0 1
create_atoms  1 single 14.2866094677138 13.4929089417297 17 mol bs 24987 units box remap yes rotate 0 0 0 1
Created 30 atoms
  create_atoms CPU = 6.57e-05 secs
variable      check1 equal ${check}               # Count the new total number of atoms
variable      check1 equal 3128               
# Check that the molecule has indeed been inserted (This check is no longer an issue).
if            "${check1} != ${check0}" then "create_bonds  single/bond 2 ${randatomi} $b" "next i"
create_bonds  single/bond 2 ${randatomi} $b
create_bonds  single/bond 2 2092 $b
create_bonds  single/bond 2 2092 3099
  2 = max # of 1-2 neighbors
  5 = max # of special neighbors
  special bonds CPU = 0.0028221 secs
next i
jump MDPBB.in loop    # End of the loop
variable      randni equal round(random(1,${ntwall},$s))  # Pick a random "top" wall atom
variable      randni equal round(random(1,2888,$s))  
variable      randni equal round(random(1,2888,234897))  
variable      randatomi equal ${randni}                   # This is to obtain an integer number for atom-id
variable      randatomi equal 2713                   
variable      randzi equal z[${randatomi}]                # Determine the z coordinate of the chosen atom
variable      randzi equal z[2713]                
# if the chosen atom is not a surface atom then restart the loop
if            "${randzi} < $(v_wthick - 0.7)" then "jump MDPBB.in loop"
jump MDPBB.in loop
variable      randni equal round(random(1,${ntwall},$s))  # Pick a random "top" wall atom
variable      randni equal round(random(1,2888,$s))  
variable      randni equal round(random(1,2888,234897))  
variable      randatomi equal ${randni}                   # This is to obtain an integer number for atom-id
variable      randatomi equal 682                   
variable      randzi equal z[${randatomi}]                # Determine the z coordinate of the chosen atom
variable      randzi equal z[682]                
# if the chosen atom is not a surface atom then restart the loop
if            "${randzi} < $(v_wthick - 0.7)" then "jump MDPBB.in loop"
jump MDPBB.in loop
variable      randni equal round(random(1,${ntwall},$s))  # Pick a random "top" wall atom
variable      randni equal round(random(1,2888,$s))  
variable      randni equal round(random(1,2888,234897))  
variable      randatomi equal ${randni}                   # This is to obtain an integer number for atom-id
variable      randatomi equal 2694                   
variable      randzi equal z[${randatomi}]                # Determine the z coordinate of the chosen atom
variable      randzi equal z[2694]                
# if the chosen atom is not a surface atom then restart the loop
if            "${randzi} < $(v_wthick - 0.7)" then "jump MDPBB.in loop"
jump MDPBB.in loop
variable      randni equal round(random(1,${ntwall},$s))  # Pick a random "top" wall atom
variable      randni equal round(random(1,2888,$s))  
variable      randni equal round(random(1,2888,234897))  
variable      randatomi equal ${randni}                   # This is to obtain an integer number for atom-id
variable      randatomi equal 378                   
variable      randzi equal z[${randatomi}]                # Determine the z coordinate of the chosen atom
variable      randzi equal z[378]                
# if the chosen atom is not a surface atom then restart the loop
if            "${randzi} < $(v_wthick - 0.7)" then "jump MDPBB.in loop"
jump MDPBB.in loop
variable      randni equal round(random(1,${ntwall},$s))  # Pick a random "top" wall atom
variable      randni equal round(random(1,2888,$s))  
variable      randni equal round(random(1,2888,234897))  
variable      randatomi equal ${randni}                   # This is to obtain an integer number for atom-id
variable      randatomi equal 2456                   
variable      randzi equal z[${randatomi}]                # Determine the z coordinate of the chosen atom
variable      randzi equal z[2456]                
# if the chosen atom is not a surface atom then restart the loop
if            "${randzi} < $(v_wthick - 0.7)" then "jump MDPBB.in loop"
set           atom ${randatomi} type 4                    # Set this grafted wall atom as a new type
set           atom 2456 type 4                    
  1 settings made for type
group         twg id ${randatomi}                         # Add this atom to a top-wall-grafted group
group         twg id 2456                         
8 atoms in group twg
variable      twgcount equal count(twg)
print         "twg contains ${twgcount}"
twg contains 8
print         "i = $(v_i)"                                # The index i should always be equal to the number of atom in twg
i = 9
variable      x0 equal x[${randatomi}]                    # Determine its x-coord
variable      x0 equal x[2456]                    
variable      y0 equal y[${randatomi}]                    # Determine its y-coord
variable      y0 equal y[2456]                    
variable      check0 equal ${check}                       # Count the number of atoms in the simulation
variable      check0 equal 3128                       
variable      b equal ${check}+1                          # The grafted bead id will be one higher after being inserted
variable      b equal 3128+1                          
if            "${twgcount} != $(v_i)" then "jump MDPBB.in loop"
jump MDPBB.in loop
variable      randni equal round(random(1,${ntwall},$s))  # Pick a random "top" wall atom
variable      randni equal round(random(1,2888,$s))  
variable      randni equal round(random(1,2888,234897))  
variable      randatomi equal ${randni}                   # This is to obtain an integer number for atom-id
variable      randatomi equal 2698                   
variable      randzi equal z[${randatomi}]                # Determine the z coordinate of the chosen atom
variable      randzi equal z[2698]                
# if the chosen atom is not a surface atom then restart the loop
if            "${randzi} < $(v_wthick - 0.7)" then "jump MDPBB.in loop"
jump MDPBB.in loop
variable      randni equal round(random(1,${ntwall},$s))  # Pick a random "top" wall atom
variable      randni equal round(random(1,2888,$s))  
variable      randni equal round(random(1,2888,234897))  
variable      randatomi equal ${randni}                   # This is to obtain an integer number for atom-id
variable      randatomi equal 989                   
variable      randzi equal z[${randatomi}]                # Determine the z coordinate of the chosen atom
variable      randzi equal z[989]                
# if the chosen atom is not a surface atom then restart the loop
if            "${randzi} < $(v_wthick - 0.7)" then "jump MDPBB.in loop"
jump MDPBB.in loop
variable      randni equal round(random(1,${ntwall},$s))  # Pick a random "top" wall atom
variable      randni equal round(random(1,2888,$s))  
variable      randni equal round(random(1,2888,234897))  
variable      randatomi equal ${randni}                   # This is to obtain an integer number for atom-id
variable      randatomi equal 752                   
variable      randzi equal z[${randatomi}]                # Determine the z coordinate of the chosen atom
variable      randzi equal z[752]                
# if the chosen atom is not a surface atom then restart the loop
if            "${randzi} < $(v_wthick - 0.7)" then "jump MDPBB.in loop"
jump MDPBB.in loop
variable      randni equal round(random(1,${ntwall},$s))  # Pick a random "top" wall atom
variable      randni equal round(random(1,2888,$s))  
variable      randni equal round(random(1,2888,234897))  
variable      randatomi equal ${randni}                   # This is to obtain an integer number for atom-id
variable      randatomi equal 1918                   
variable      randzi equal z[${randatomi}]                # Determine the z coordinate of the chosen atom
variable      randzi equal z[1918]                
# if the chosen atom is not a surface atom then restart the loop
if            "${randzi} < $(v_wthick - 0.7)" then "jump MDPBB.in loop"
jump MDPBB.in loop
variable      randni equal round(random(1,${ntwall},$s))  # Pick a random "top" wall atom
variable      randni equal round(random(1,2888,$s))  
variable      randni equal round(random(1,2888,234897))  
variable      randatomi equal ${randni}                   # This is to obtain an integer number for atom-id
variable      randatomi equal 1347                   
variable      randzi equal z[${randatomi}]                # Determine the z coordinate of the chosen atom
variable      randzi equal z[1347]                
# if the chosen atom is not a surface atom then restart the loop
if            "${randzi} < $(v_wthick - 0.7)" then "jump MDPBB.in loop"
jump MDPBB.in loop
variable      randni equal round(random(1,${ntwall},$s))  # Pick a random "top" wall atom
variable      randni equal round(random(1,2888,$s))  
variable      randni equal round(random(1,2888,234897))  
variable      randatomi equal ${randni}                   # This is to obtain an integer number for atom-id
variable      randatomi equal 418                   
variable      randzi equal z[${randatomi}]                # Determine the z coordinate of the chosen atom
variable      randzi equal z[418]                
# if the chosen atom is not a surface atom then restart the loop
if            "${randzi} < $(v_wthick - 0.7)" then "jump MDPBB.in loop"
jump MDPBB.in loop
variable      randni equal round(random(1,${ntwall},$s))  # Pick a random "top" wall atom
variable      randni equal round(random(1,2888,$s))  
variable      randni equal round(random(1,2888,234897))  
variable      randatomi equal ${randni}                   # This is to obtain an integer number for atom-id
variable      randatomi equal 2659                   
variable      randzi equal z[${randatomi}]                # Determine the z coordinate of the chosen atom
variable      randzi equal z[2659]                
# if the chosen atom is not a surface atom then restart the loop
if            "${randzi} < $(v_wthick - 0.7)" then "jump MDPBB.in loop"
set           atom ${randatomi} type 4                    # Set this grafted wall atom as a new type
set           atom 2659 type 4                    
  1 settings made for type
group         twg id ${randatomi}                         # Add this atom to a top-wall-grafted group
group         twg id 2659                         
9 atoms in group twg
variable      twgcount equal count(twg)
print         "twg contains ${twgcount}"
twg contains 9
print         "i = $(v_i)"                                # The index i should always be equal to the number of atom in twg
i = 9
variable      x0 equal x[${randatomi}]                    # Determine its x-coord
variable      x0 equal x[2659]                    
variable      y0 equal y[${randatomi}]                    # Determine its y-coord
variable      y0 equal y[2659]                    
variable      check0 equal ${check}                       # Count the number of atoms in the simulation
variable      check0 equal 3128                       
variable      b equal ${check}+1                          # The grafted bead id will be one higher after being inserted
variable      b equal 3128+1                          
if            "${twgcount} != $(v_i)" then "jump MDPBB.in loop"
# Otherwise insert the chain directly above the chosen wall atom pointing perpendicular to the wall
create_atoms  1 single ${x0} ${y0} ${z0} mol bs 24987 units box remap yes rotate 0 0 0 1
create_atoms  1 single 29.3669194614117 ${y0} ${z0} mol bs 24987 units box remap yes rotate 0 0 0 1
create_atoms  1 single 29.3669194614117 23.811015779523 ${z0} mol bs 24987 units box remap yes rotate 0 0 0 1
create_atoms  1 single 29.3669194614117 23.811015779523 17 mol bs 24987 units box remap yes rotate 0 0 0 1
Created 30 atoms
  create_atoms CPU = 7.02e-05 secs
variable      check1 equal ${check}               # Count the new total number of atoms
variable      check1 equal 3158               
# Check that the molecule has indeed been inserted (This check is no longer an issue).
if            "${check1} != ${check0}" then "create_bonds  single/bond 2 ${randatomi} $b" "next i"
create_bonds  single/bond 2 ${randatomi} $b
create_bonds  single/bond 2 2659 $b
create_bonds  single/bond 2 2659 3129
  2 = max # of 1-2 neighbors
  5 = max # of special neighbors
  special bonds CPU = 0.0038032 secs
next i
jump MDPBB.in loop    # End of the loop
variable      randni equal round(random(1,${ntwall},$s))  # Pick a random "top" wall atom
variable      randni equal round(random(1,2888,$s))  
variable      randni equal round(random(1,2888,234897))  
variable      randatomi equal ${randni}                   # This is to obtain an integer number for atom-id
variable      randatomi equal 2763                   
variable      randzi equal z[${randatomi}]                # Determine the z coordinate of the chosen atom
variable      randzi equal z[2763]                
# if the chosen atom is not a surface atom then restart the loop
if            "${randzi} < $(v_wthick - 0.7)" then "jump MDPBB.in loop"
set           atom ${randatomi} type 4                    # Set this grafted wall atom as a new type
set           atom 2763 type 4                    
  1 settings made for type
group         twg id ${randatomi}                         # Add this atom to a top-wall-grafted group
group         twg id 2763                         
10 atoms in group twg
variable      twgcount equal count(twg)
print         "twg contains ${twgcount}"
twg contains 10
print         "i = $(v_i)"                                # The index i should always be equal to the number of atom in twg
i = 10
variable      x0 equal x[${randatomi}]                    # Determine its x-coord
variable      x0 equal x[2763]                    
variable      y0 equal y[${randatomi}]                    # Determine its y-coord
variable      y0 equal y[2763]                    
variable      check0 equal ${check}                       # Count the number of atoms in the simulation
variable      check0 equal 3158                       
variable      b equal ${check}+1                          # The grafted bead id will be one higher after being inserted
variable      b equal 3158+1                          
if            "${twgcount} != $(v_i)" then "jump MDPBB.in loop"
# Otherwise insert the chain directly above the chosen wall atom pointing perpendicular to the wall
create_atoms  1 single ${x0} ${y0} ${z0} mol bs 24987 units box remap yes rotate 0 0 0 1
create_atoms  1 single 10.3181068377933 ${y0} ${z0} mol bs 24987 units box remap yes rotate 0 0 0 1
create_atoms  1 single 10.3181068377933 26.9858178834594 ${z0} mol bs 24987 units box remap yes rotate 0 0 0 1
create_atoms  1 single 10.3181068377933 26.9858178834594 17 mol bs 24987 units box remap yes rotate 0 0 0 1
Created 30 atoms
  create_atoms CPU = 8.71e-05 secs
variable      check1 equal ${check}               # Count the new total number of atoms
variable      check1 equal 3188               
# Check that the molecule has indeed been inserted (This check is no longer an issue).
if            "${check1} != ${check0}" then "create_bonds  single/bond 2 ${randatomi} $b" "next i"
create_bonds  single/bond 2 ${randatomi} $b
create_bonds  single/bond 2 2763 $b
create_bonds  single/bond 2 2763 3159
  2 = max # of 1-2 neighbors
  5 = max # of special neighbors
  special bonds CPU = 0.0042391 secs
next i
jump MDPBB.in loop    # End of the loop
variable      randni equal round(random(1,${ntwall},$s))  # Pick a random "top" wall atom
variable      randni equal round(random(1,2888,$s))  
variable      randni equal round(random(1,2888,234897))  
variable      randatomi equal ${randni}                   # This is to obtain an integer number for atom-id
variable      randatomi equal 2611                   
variable      randzi equal z[${randatomi}]                # Determine the z coordinate of the chosen atom
variable      randzi equal z[2611]                
# if the chosen atom is not a surface atom then restart the loop
if            "${randzi} < $(v_wthick - 0.7)" then "jump MDPBB.in loop"
set           atom ${randatomi} type 4                    # Set this grafted wall atom as a new type
set           atom 2611 type 4                    
  1 settings made for type
group         twg id ${randatomi}                         # Add this atom to a top-wall-grafted group
group         twg id 2611                         
11 atoms in group twg
variable      twgcount equal count(twg)
print         "twg contains ${twgcount}"
twg contains 11
print         "i = $(v_i)"                                # The index i should always be equal to the number of atom in twg
i = 11
variable      x0 equal x[${randatomi}]                    # Determine its x-coord
variable      x0 equal x[2611]                    
variable      y0 equal y[${randatomi}]                    # Determine its y-coord
variable      y0 equal y[2611]                    
variable      check0 equal ${check}                       # Count the number of atoms in the simulation
variable      check0 equal 3188                       
variable      b equal ${check}+1                          # The grafted bead id will be one higher after being inserted
variable      b equal 3188+1                          
if            "${twgcount} != $(v_i)" then "jump MDPBB.in loop"
# Otherwise insert the chain directly above the chosen wall atom pointing perpendicular to the wall
create_atoms  1 single ${x0} ${y0} ${z0} mol bs 24987 units box remap yes rotate 0 0 0 1
create_atoms  1 single 10.3181068377933 ${y0} ${z0} mol bs 24987 units box remap yes rotate 0 0 0 1
create_atoms  1 single 10.3181068377933 23.811015779523 ${z0} mol bs 24987 units box remap yes rotate 0 0 0 1
create_atoms  1 single 10.3181068377933 23.811015779523 17 mol bs 24987 units box remap yes rotate 0 0 0 1
Created 30 atoms
  create_atoms CPU = 6.19e-05 secs
variable      check1 equal ${check}               # Count the new total number of atoms
variable      check1 equal 3218               
# Check that the molecule has indeed been inserted (This check is no longer an issue).
if            "${check1} != ${check0}" then "create_bonds  single/bond 2 ${randatomi} $b" "next i"
create_bonds  single/bond 2 ${randatomi} $b
create_bonds  single/bond 2 2611 $b
create_bonds  single/bond 2 2611 3189
  2 = max # of 1-2 neighbors
  5 = max # of special neighbors
  special bonds CPU = 0.0022256 secs
next i
jump MDPBB.in loop    # End of the loop
variable      randni equal round(random(1,${ntwall},$s))  # Pick a random "top" wall atom
variable      randni equal round(random(1,2888,$s))  
variable      randni equal round(random(1,2888,234897))  
variable      randatomi equal ${randni}                   # This is to obtain an integer number for atom-id
variable      randatomi equal 2302                   
variable      randzi equal z[${randatomi}]                # Determine the z coordinate of the chosen atom
variable      randzi equal z[2302]                
# if the chosen atom is not a surface atom then restart the loop
if            "${randzi} < $(v_wthick - 0.7)" then "jump MDPBB.in loop"
jump MDPBB.in loop
variable      randni equal round(random(1,${ntwall},$s))  # Pick a random "top" wall atom
variable      randni equal round(random(1,2888,$s))  
variable      randni equal round(random(1,2888,234897))  
variable      randatomi equal ${randni}                   # This is to obtain an integer number for atom-id
variable      randatomi equal 1267                   
variable      randzi equal z[${randatomi}]                # Determine the z coordinate of the chosen atom
variable      randzi equal z[1267]                
# if the chosen atom is not a surface atom then restart the loop
if            "${randzi} < $(v_wthick - 0.7)" then "jump MDPBB.in loop"
jump MDPBB.in loop
variable      randni equal round(random(1,${ntwall},$s))  # Pick a random "top" wall atom
variable      randni equal round(random(1,2888,$s))  
variable      randni equal round(random(1,2888,234897))  
variable      randatomi equal ${randni}                   # This is to obtain an integer number for atom-id
variable      randatomi equal 1072                   
variable      randzi equal z[${randatomi}]                # Determine the z coordinate of the chosen atom
variable      randzi equal z[1072]                
# if the chosen atom is not a surface atom then restart the loop
if            "${randzi} < $(v_wthick - 0.7)" then "jump MDPBB.in loop"
jump MDPBB.in loop
variable      randni equal round(random(1,${ntwall},$s))  # Pick a random "top" wall atom
variable      randni equal round(random(1,2888,$s))  
variable      randni equal round(random(1,2888,234897))  
variable      randatomi equal ${randni}                   # This is to obtain an integer number for atom-id
variable      randatomi equal 2025                   
variable      randzi equal z[${randatomi}]                # Determine the z coordinate of the chosen atom
variable      randzi equal z[2025]                
# if the chosen atom is not a surface atom then restart the loop
if            "${randzi} < $(v_wthick - 0.7)" then "jump MDPBB.in loop"
jump MDPBB.in loop
variable      randni equal round(random(1,${ntwall},$s))  # Pick a random "top" wall atom
variable      randni equal round(random(1,2888,$s))  
variable      randni equal round(random(1,2888,234897))  
variable      randatomi equal ${randni}                   # This is to obtain an integer number for atom-id
variable      randatomi equal 271                   
variable      randzi equal z[${randatomi}]                # Determine the z coordinate of the chosen atom
variable      randzi equal z[271]                
# if the chosen atom is not a surface atom then restart the loop
if            "${randzi} < $(v_wthick - 0.7)" then "jump MDPBB.in loop"
jump MDPBB.in loop
variable      randni equal round(random(1,${ntwall},$s))  # Pick a random "top" wall atom
variable      randni equal round(random(1,2888,$s))  
variable      randni equal round(random(1,2888,234897))  
variable      randatomi equal ${randni}                   # This is to obtain an integer number for atom-id
variable      randatomi equal 1094                   
variable      randzi equal z[${randatomi}]                # Determine the z coordinate of the chosen atom
variable      randzi equal z[1094]                
# if the chosen atom is not a surface atom then restart the loop
if            "${randzi} < $(v_wthick - 0.7)" then "jump MDPBB.in loop"
jump MDPBB.in loop
variable      randni equal round(random(1,${ntwall},$s))  # Pick a random "top" wall atom
variable      randni equal round(random(1,2888,$s))  
variable      randni equal round(random(1,2888,234897))  
variable      randatomi equal ${randni}                   # This is to obtain an integer number for atom-id
variable      randatomi equal 1260                   
variable      randzi equal z[${randatomi}]                # Determine the z coordinate of the chosen atom
variable      randzi equal z[1260]                
# if the chosen atom is not a surface atom then restart the loop
if            "${randzi} < $(v_wthick - 0.7)" then "jump MDPBB.in loop"
jump MDPBB.in loop
variable      randni equal round(random(1,${ntwall},$s))  # Pick a random "top" wall atom
variable      randni equal round(random(1,2888,$s))  
variable      randni equal round(random(1,2888,234897))  
variable      randatomi equal ${randni}                   # This is to obtain an integer number for atom-id
variable      randatomi equal 949                   
variable      randzi equal z[${randatomi}]                # Determine the z coordinate of the chosen atom
variable      randzi equal z[949]                
# if the chosen atom is not a surface atom then restart the loop
if            "${randzi} < $(v_wthick - 0.7)" then "jump MDPBB.in loop"
jump MDPBB.in loop
variable      randni equal round(random(1,${ntwall},$s))  # Pick a random "top" wall atom
variable      randni equal round(random(1,2888,$s))  
variable      randni equal round(random(1,2888,234897))  
variable      randatomi equal ${randni}                   # This is to obtain an integer number for atom-id
variable      randatomi equal 1761                   
variable      randzi equal z[${randatomi}]                # Determine the z coordinate of the chosen atom
variable      randzi equal z[1761]                
# if the chosen atom is not a surface atom then restart the loop
if            "${randzi} < $(v_wthick - 0.7)" then "jump MDPBB.in loop"
jump MDPBB.in loop
variable      randni equal round(random(1,${ntwall},$s))  # Pick a random "top" wall atom
variable      randni equal round(random(1,2888,$s))  
variable      randni equal round(random(1,2888,234897))  
variable      randatomi equal ${randni}                   # This is to obtain an integer number for atom-id
variable      randatomi equal 827                   
variable      randzi equal z[${randatomi}]                # Determine the z coordinate of the chosen atom
variable      randzi equal z[827]                
# if the chosen atom is not a surface atom then restart the loop
if            "${randzi} < $(v_wthick - 0.7)" then "jump MDPBB.in loop"
jump MDPBB.in loop
variable      randni equal round(random(1,${ntwall},$s))  # Pick a random "top" wall atom
variable      randni equal round(random(1,2888,$s))  
variable      randni equal round(random(1,2888,234897))  
variable      randatomi equal ${randni}                   # This is to obtain an integer number for atom-id
variable      randatomi equal 688                   
variable      randzi equal z[${randatomi}]                # Determine the z coordinate of the chosen atom
variable      randzi equal z[688]                
# if the chosen atom is not a surface atom then restart the loop
if            "${randzi} < $(v_wthick - 0.7)" then "jump MDPBB.in loop"
jump MDPBB.in loop
variable      randni equal round(random(1,${ntwall},$s))  # Pick a random "top" wall atom
variable      randni equal round(random(1,2888,$s))  
variable      randni equal round(random(1,2888,234897))  
variable      randatomi equal ${randni}                   # This is to obtain an integer number for atom-id
variable      randatomi equal 248                   
variable      randzi equal z[${randatomi}]                # Determine the z coordinate of the chosen atom
variable      randzi equal z[248]                
# if the chosen atom is not a surface atom then restart the loop
if            "${randzi} < $(v_wthick - 0.7)" then "jump MDPBB.in loop"
jump MDPBB.in loop
variable      randni equal round(random(1,${ntwall},$s))  # Pick a random "top" wall atom
variable      randni equal round(random(1,2888,$s))  
variable      randni equal round(random(1,2888,234897))  
variable      randatomi equal ${randni}                   # This is to obtain an integer number for atom-id
variable      randatomi equal 1966                   
variable      randzi equal z[${randatomi}]                # Determine the z coordinate of the chosen atom
variable      randzi equal z[1966]                
# if the chosen atom is not a surface atom then restart the loop
if            "${randzi} < $(v_wthick - 0.7)" then "jump MDPBB.in loop"
jump MDPBB.in loop
variable      randni equal round(random(1,${ntwall},$s))  # Pick a random "top" wall atom
variable      randni equal round(random(1,2888,$s))  
variable      randni equal round(random(1,2888,234897))  
variable      randatomi equal ${randni}                   # This is to obtain an integer number for atom-id
variable      randatomi equal 2118                   
variable      randzi equal z[${randatomi}]                # Determine the z coordinate of the chosen atom
variable      randzi equal z[2118]                
# if the chosen atom is not a surface atom then restart the loop
if            "${randzi} < $(v_wthick - 0.7)" then "jump MDPBB.in loop"
jump MDPBB.in loop
variable      randni equal round(random(1,${ntwall},$s))  # Pick a random "top" wall atom
variable      randni equal round(random(1,2888,$s))  
variable      randni equal round(random(1,2888,234897))  
variable      randatomi equal ${randni}                   # This is to obtain an integer number for atom-id
variable      randatomi equal 973                   
variable      randzi equal z[${randatomi}]                # Determine the z coordinate of the chosen atom
variable      randzi equal z[973]                
# if the chosen atom is not a surface atom then restart the loop
if            "${randzi} < $(v_wthick - 0.7)" then "jump MDPBB.in loop"
jump MDPBB.in loop
variable      randni equal round(random(1,${ntwall},$s))  # Pick a random "top" wall atom
variable      randni equal round(random(1,2888,$s))  
variable      randni equal round(random(1,2888,234897))  
variable      randatomi equal ${randni}                   # This is to obtain an integer number for atom-id
variable      randatomi equal 1444                   
variable      randzi equal z[${randatomi}]                # Determine the z coordinate of the chosen atom
variable      randzi equal z[1444]                
# if the chosen atom is not a surface atom then restart the loop
if            "${randzi} < $(v_wthick - 0.7)" then "jump MDPBB.in loop"
jump MDPBB.in loop
variable      randni equal round(random(1,${ntwall},$s))  # Pick a random "top" wall atom
variable      randni equal round(random(1,2888,$s))  
variable      randni equal round(random(1,2888,234897))  
variable      randatomi equal ${randni}                   # This is to obtain an integer number for atom-id
variable      randatomi equal 1243                   
variable      randzi equal z[${randatomi}]                # Determine the z coordinate of the chosen atom
variable      randzi equal z[1243]                
# if the chosen atom is not a surface atom then restart the loop
if            "${randzi} < $(v_wthick - 0.7)" then "jump MDPBB.in loop"
jump MDPBB.in loop
variable      randni equal round(random(1,${ntwall},$s))  # Pick a random "top" wall atom
variable      randni equal round(random(1,2888,$s))  
variable      randni equal round(random(1,2888,234897))  
variable      randatomi equal ${randni}                   # This is to obtain an integer number for atom-id
variable      randatomi equal 654                   
variable      randzi equal z[${randatomi}]                # Determine the z coordinate of the chosen atom
variable      randzi equal z[654]                
# if the chosen atom is not a surface atom then restart the loop
if            "${randzi} < $(v_wthick - 0.7)" then "jump MDPBB.in loop"
jump MDPBB.in loop
variable      randni equal round(random(1,${ntwall},$s))  # Pick a random "top" wall atom
variable      randni equal round(random(1,2888,$s))  
variable      randni equal round(random(1,2888,234897))  
variable      randatomi equal ${randni}                   # This is to obtain an integer number for atom-id
variable      randatomi equal 1674                   
variable      randzi equal z[${randatomi}]                # Determine the z coordinate of the chosen atom
variable      randzi equal z[1674]                
# if the chosen atom is not a surface atom then restart the loop
if            "${randzi} < $(v_wthick - 0.7)" then "jump MDPBB.in loop"
jump MDPBB.in loop
variable      randni equal round(random(1,${ntwall},$s))  # Pick a random "top" wall atom
variable      randni equal round(random(1,2888,$s))  
variable      randni equal round(random(1,2888,234897))  
variable      randatomi equal ${randni}                   # This is to obtain an integer number for atom-id
variable      randatomi equal 528                   
variable      randzi equal z[${randatomi}]                # Determine the z coordinate of the chosen atom
variable      randzi equal z[528]                
# if the chosen atom is not a surface atom then restart the loop
if            "${randzi} < $(v_wthick - 0.7)" then "jump MDPBB.in loop"
jump MDPBB.in loop
variable      randni equal round(random(1,${ntwall},$s))  # Pick a random "top" wall atom
variable      randni equal round(random(1,2888,$s))  
variable      randni equal round(random(1,2888,234897))  
[...]
fix            vel_prof_x_s all ave/chunk 100 40 ${Nfreqs} eall vx vy file velp_sz
fix            vel_prof_x_s all ave/chunk 100 40 4000 eall vx vy file velp_sz
#--- Ave s_bot and p_bot ---#

fix             fc_ave all ave/time ${Neverys} ${Nrepeats} ${Nfreqs} v_sbot v_pbot file fc_ave.dump
fix             fc_ave all ave/time 100 ${Nrepeats} ${Nfreqs} v_sbot v_pbot file fc_ave.dump
fix             fc_ave all ave/time 100 40 ${Nfreqs} v_sbot v_pbot file fc_ave.dump
fix             fc_ave all ave/time 100 40 4000 v_sbot v_pbot file fc_ave.dump

#--- Dumps ---#
#dump           shear all image ${Ndump_s} stg3.*.jpg type type zoom 2 view 60 120 bond none none
dump            shxyz all xyz ${Nshear} sh.xyz
dump            shxyz all xyz 40000 sh.xyz

#--- Run Shear ---#
timestep    ${Tstep}
timestep    0.005
run         ${Nshear}
run         40000
WARNING: Inconsistent image flags (src/domain.cpp:784)
Per MPI rank memory allocation (min/avg/max) = 10.6 | 10.6 | 10.6 Mbytes
Step TotEng KinEng PotEng E_pair Temp c_melTemp c_wallTemp v_Fcatom v_Pcomp2 Press Pxx Pyy Pzz Pxy Pxz Pyz c_melPress c_wallPress v_melDens v_surfcov v_aveRg v_Vwall v_srate v_D v_bwzmax Zhi c_fbwall[1] c_fbwall[3] c_ftwall[1] c_ftwall[3] v_sbot v_pbot 
  100000    4.2668405    1.2743874    2.9924531   -0.1716675   0.84968221    1.0072038   0.75166134   -1.2465374            1    1.3268114    1.8704357    1.8786276   0.23137091 0.0073780479  0.082317515 -0.033211311    1.1866572    1.2097722   0.44219981  0.066666667    1.2572208        0.001 0.00011054995    9.0456845    2.4759524    34.413227 -0.00099170526  -0.10756808 0.00010007041   0.18443067   -1.1717146    2.8832607 
  101000    4.3732891    1.3674979    3.0057912  -0.16342511   0.91176251     1.056774   0.82154873   -1.2465374            1    1.2807246     1.826223    1.8475272   0.16842349 0.00055760962  0.017058695 0.0094121548    1.1275392    1.1579252   0.49457802  0.066666667    1.1748414        0.001 0.00012364451    8.0877027    2.5039931    34.413227 -0.0024706098  -0.14621493 -0.0055853428   0.12849516 -0.070139979   0.19137278 
  102000    4.4867457     1.515261    2.9714847  -0.22447333    1.0102817    1.2849894    0.8392579   -1.2465374            1    1.6568526    2.1291677      2.13463    0.7067602 -0.0051525365    0.0261451  0.018506708    1.5003652    1.5075342   0.77128836  0.066666667    1.1341177        0.001 0.00019282209    5.1861278      2.49751    34.413227 0.0096369747  -0.32356038 0.0036076724   0.27365496   -1.1875569    2.6678969 
  103000    4.4512093    1.4509488    3.0002605  -0.20197843   0.96740238    1.2049483   0.81953045   -1.2465374            1    1.4966361    2.0135119    2.0191906   0.45720575  0.011104645  0.048191956 -0.013927059     1.343827    1.3566186   0.72692397  0.066666667    1.1390761        0.001 0.00018173099    5.5026387    2.4812697    34.413227 -0.003443887  -0.21132513 0.0095362964   0.21997838   -1.0035904    1.3356114 
  104000    4.3471377    1.3164626    3.0306751  -0.16685379   0.87773534    1.0670805   0.75988676   -1.2465374            1    1.3528717    1.9063039    1.8840068   0.26830449 -0.012867576  0.087161396 -0.030781232    1.2111838    1.2288747   0.54544746  0.066666667    1.1940387        0.001 0.00013636187    7.3334285    2.5104305    34.413227 0.0098654315  -0.11192007 -0.0070817692   0.14942271  -0.62061838   0.18739928 
  105000    4.3362414    1.3197968    3.0164446  -0.18077655   0.87995839    1.0646603   0.76500393   -1.2465374            1    1.3399887    1.8866384    1.8957886   0.23753912 0.0053866306 -0.073403584  0.026657121    1.1973466     1.216273   0.53533323  0.066666667    1.2345443        0.001 0.00013383331    7.4719816    2.4853421    34.413227 -0.015962861  -0.14693891 -0.015551118   0.15950339  -0.25277634   0.48162455 
  106000    4.3988255    1.4021024    2.9967231  -0.20657379   0.93483465    1.1728071    0.7866913   -1.2465374            1     1.356198    1.8990611    1.9023053   0.26722773 -0.0029536041 -0.070034886 -0.036598101    1.2095121    1.2199154   0.67161387  0.066666667    1.1958791        0.001 0.00016790347    5.9558032    2.4876183    34.413227 -0.010559298  -0.22069862 -0.0084425232   0.22331254  -0.67810202   0.23854712 
  107000     4.398114    1.4165375    2.9815765  -0.21220275   0.94445907    1.2287596   0.76744552   -1.2465374            1    1.6074944    2.1131548     2.127557    0.5817715 -0.0013619919  0.075854439  0.028065848     1.464397      1.46471   0.77313312  0.066666667    1.2120578        0.001 0.00019328328    5.1737533    2.4807002    34.413227 0.0089726821  -0.25324763 -0.0012965495    0.2627198  -0.89361739    4.6671404 
  108000    4.3480699    1.3532606    2.9948092  -0.18295782   0.90226997    1.1159933    0.7692331   -1.2465374            1    1.3997946    1.9666412    1.9425187   0.29022396 0.0047684202 -0.026058124 0.0016537392    1.2563639    1.2701139   0.63273227  0.066666667    1.2408462        0.001 0.00015818307    6.3217892    2.4872305    34.413227 0.0036422931  -0.15644717 -0.0016892903   0.17181486   -1.4239078   0.10453945 
  109000    4.3310638    1.3304271    3.0006367  -0.17678957   0.88704598      1.06848   0.77412927   -1.2465374            1    1.4830489    1.9926064    2.0195304   0.43700974 -0.0035588837  0.034904751  0.066659649    1.3387053    1.3588893   0.59481267  0.066666667    1.2451724        0.001 0.00014870317    6.7248063    2.4801828    34.413227 0.0012326814  -0.14249486 -0.0033071309   0.15471267   0.17021468    3.2071381 
  110000    4.3432421    1.3711631     2.972079  -0.19755949   0.91420624     1.140837   0.77312749   -1.2465374            1    1.4622556    1.9849431    1.9965275   0.40529633  0.010410718   0.04463758  0.010879458    1.3180988     1.329688   0.67079128  0.066666667    1.2487181        0.001 0.00016769782    5.9631067    2.4968761    34.413227 0.00079105515  -0.25283116 -0.017296919   0.17531611  -0.57015501    3.5145768 
  111000    4.3239128     1.358908    2.9650048  -0.21798493   0.90603532     1.159779   0.74805825   -1.2465374            1    1.4474024    1.9854833    1.9823671   0.37435671 -0.012391861 -0.079287638 -0.028137399    1.3079199    1.3126336   0.75364781  0.066666667    1.2472606        0.001 0.00018841195    5.3075189    2.4984777    34.413227 0.0024551541  -0.25686195  0.010729947   0.22899087     1.033769   0.89801509 
  112000    4.2939316    1.3147029    2.9792286  -0.18896019   0.87656211    1.0738341   0.75377332   -1.2465374            1    1.3790626    1.9017181    1.9397408   0.29572894  0.030596929  -0.00951328 -0.006192891    1.2385146    1.2542809   0.67900541  0.066666667    1.2780328        0.001 0.00016975135    5.8909693    2.4976424    34.413227 -0.00026816035  -0.16070733 0.0070685977   0.18306507  -0.99044866    1.6535387 
  113000    4.2739765    1.3087652    2.9652113   -0.1858041   0.87260323    1.0657845   0.75236307   -1.2465374            1    1.3492271    1.8960758    1.9109984   0.24060717  0.018605152 -0.0064448988 -0.0095761824     1.208942    1.2253807   0.63965013  0.066666667    1.3197583        0.001 0.00015991253    6.2534186    2.4974801    34.413227 -0.00060031418  -0.18683389 0.0047786668   0.17239493  -0.30465193    3.1227834 
  114000     4.289673    1.3295833    2.9600898  -0.20431832   0.88648338    1.0793897   0.76641701   -1.2465374            1    1.2647855    1.8386588    1.8412453   0.11445253 -0.010139579   0.12712474  0.012020243      1.12188    1.1393582   0.67929505  0.066666667    1.2992167        0.001 0.00016982376    5.8884575    2.4937808    34.413227  0.007544366  -0.17914667 -0.020415954   0.21366888   -2.7710963   0.16427774 
  115000    4.2752138    1.3399153    2.9352985  -0.21163129   0.89337217      1.12358   0.75006058   -1.2465374            1    1.4426567    1.9577374    2.0058675   0.36436522  0.023099518   0.03224996 -0.025356059    1.3028009    1.3120944   0.71763434  0.066666667    1.2872792        0.001 0.00017940859    5.5738693    2.4780687    34.413227 -0.011479839  -0.21149858 0.0013889349   0.21408486  -0.28746981   0.98412079 
  116000    4.2729182    1.3202114    2.9527069  -0.20633257    0.8802348    1.0808338   0.75537321   -1.2465374            1    1.3708999    1.9280897    1.9349719   0.24963801 0.0068410964 -0.0072161658 -0.00018411332    1.2300535    1.2453047    0.6904893  0.066666667    1.3294413        0.001 0.00017262233    5.7929934    2.4876354    34.413227 0.0032517714  -0.18772646  0.008889159   0.15244743  0.080466116    1.3987293 
  117000     4.268905    1.3219158    2.9469892  -0.19842624   0.88137121    1.0649034   0.76714594   -1.2465374            1    1.2782022    1.8630625    1.8729002  0.098643882 -0.0039886956  0.013220664  0.026674986    1.1351607    1.1544582   0.66646408  0.066666667    1.3621464        0.001 0.00016661602    6.0018239    2.4919235    34.413227 0.0024698249   -0.1537861 -0.001667593   0.18355158   -0.3208339  -0.14948465 
  118000    4.2385392    1.2949594    2.9435797  -0.19915796   0.86339838    1.0512581   0.74647305   -1.2465374            1    1.4089255    1.9372731    1.9678263   0.32167701 0.0035662257 -0.041866506 -0.062629375    1.2697386    1.2867671    0.6849624  0.066666667    1.3648103        0.001 0.0001712406    5.8397366    2.4815652    34.413227 0.0083560747  -0.17618461  0.017194664   0.20217535  -0.62631677    2.2518716 
  119000    4.2602075    1.3051453    2.9550623  -0.20899288   0.87018967    1.0772899   0.74127479   -1.2465374            1    1.4508041    1.9748393    1.9860231   0.39154974  0.030169156 -0.0063588351 0.0055682629    1.3125865    1.3256207   0.70513499  0.066666667    1.3572219        0.001 0.00017628375    5.6726727    2.4777512    34.413227 0.0050829038  -0.21182354 -0.0063594323   0.18065943   -1.6557854   0.64719231 
  120000    4.2632875    1.3083688    2.9549187  -0.20097452   0.87233888    1.0521934   0.76040397   -1.2465374            1    1.4198749    1.9788351    1.9586652    0.3221244 -0.0010001747 -0.046666284 -0.039926189    1.2780905    1.2976078   0.69584078  0.066666667    1.3704547        0.001 0.00017396019    5.7484415     2.496708    34.413227  0.016107565  -0.20559232 -0.0065532247   0.21922048   0.95174308     3.066882 
  121000    4.2479411    1.2862804    2.9616607  -0.20359325   0.85761174    1.0377818   0.74547761   -1.2465374            1    1.3027196    1.8623132    1.8751466    0.1706991 -0.017443019  0.046567105 -0.024235346    1.1637184    1.1821272   0.67668397  0.066666667    1.4340477        0.001 0.00016917099    5.9111789    2.4791429    34.413227  0.019149978  -0.16394204 -0.0085705938   0.18122624   0.69483151    1.4284097 
  122000    4.1903575    1.2816648    2.9086927  -0.21393599   0.85453433    1.0394458   0.73944484   -1.2465374            1    1.4695491    1.9965105    2.0051146   0.40702225  0.012285934   0.07630452 -0.037317252    1.3316728    1.3487634   0.69196086  0.066666667    1.4306752        0.001 0.00017299022    5.7806738    2.4747815    34.413227 0.0071304998  -0.21449632  0.010608376   0.19453067  -0.19996014    1.1818863 
  123000    4.2110203    1.2997819    2.9112385  -0.21965445   0.86661367    1.0394904   0.75902636   -1.2465374            1    1.3676438    1.9063712    1.9274155   0.26914463 0.0061683564 -0.020886053   0.03087747    1.2261162    1.2468528   0.70544584  0.066666667    1.4220746        0.001 0.00017636146    5.6701731    2.4861839    34.413227 0.0061357783  -0.23112003 -0.014729227     0.198166    1.9413248    -0.753727 
  124000    4.1940521    1.2892999    2.9047522   -0.2154317   0.85962496    1.0328136   0.75184204   -1.2465374            1     1.432079    1.9686809    1.9871422   0.34041404 -0.015672186 0.0074087993  0.010484511    1.2918911    1.3120639   0.69746533  0.066666667    1.4127398        0.001 0.00017436633    5.7350521    2.4950565    34.413227 0.0094624565   -0.1830221 0.0011349948   0.18346775  -0.27646723    1.8542649 
  125000    4.2007976    1.2809166    2.9198811  -0.20954373   0.85403546    1.0151878   0.75375264   -1.2465374            1    1.4933899    2.0117315    2.0090072   0.45943096  0.022441209  0.011049929   0.04599724    1.3528457    1.3754229   0.69152208  0.066666667    1.4008737        0.001 0.00017288052    5.7843417    2.4787753    34.413227  0.010809023  -0.21071115 0.0032411438   0.17739328   0.20034214    1.6197741 
  126000    4.2005551    1.2806545    2.9199007  -0.21148215    0.8538607    1.0192901   0.75091236   -1.2465374            1    1.2710906    1.8561674    1.8400475   0.11705703 0.0042388115  -0.03098808 -0.047179795     1.131076     1.152647   0.69556121  0.066666667    1.4124593        0.001 0.0001738903     5.750752    2.4911479    34.413227 -0.019240226  -0.18846738 5.8880313e-05   0.19424038  -0.19978453   -1.8503628 
  127000    4.1971154    1.2898833    2.9072321  -0.20795695   0.86001389    1.0410515   0.74733957   -1.2465374            1    1.4115899      1.96331    1.9649573   0.30650251 -0.0041518208 -0.013985436 0.0072883018    1.2722415    1.2906176   0.70390553  0.066666667    1.4040007        0.001 0.00017597638    5.6825807    2.4873402    34.413227 0.0033717647  -0.20330652 -0.0024316545   0.18072077   0.50857488   0.85836513 
  128000    4.2293796    1.2840789    2.9453008  -0.21235238   0.85614388    1.0266792   0.75001393   -1.2465374            1    1.4571082    1.9784669    1.9853187   0.40753899 -0.0018239025 -0.0054025921  0.070417995    1.3172611    1.3378059   0.69418338  0.066666667    1.4207833        0.001 0.00017354584    5.7621662    2.4809682    34.413227 -0.0061489052  -0.17043561 0.0064990378   0.17596574   0.57009903   0.19496943 
  129000    4.1852327    1.2688842    2.9163485  -0.21168833   0.84601302     1.010779   0.74347676   -1.2465374            1    1.4783038    2.0190674    1.9956052   0.42023886 -0.0019878296  0.013983264 -0.0054634218    1.3396757    1.3608492   0.69443716  0.066666667    1.4261004        0.001 0.00017360929    5.7600605    2.4815272    34.413227 0.0050625506  -0.15655375 0.00072464081   0.16293204 -0.0053149866    3.1506942 
  130000    4.1996617    1.3004058    2.8992559   -0.2106292   0.86702968    1.0297713   0.76575869   -1.2465374            1    1.3290671    1.8967866      1.90686   0.18355456 -0.0071618725 -0.044501585 -0.026547849    1.1862842    1.2094055   0.70002658  0.066666667    1.4294177        0.001 0.00017500664    5.7140688    2.4945097    34.413227 0.0090175061   -0.2114208 0.0066396555    0.1840184  -0.16682654    -1.108834 
  131000    4.1618175    1.2677544    2.8940631  -0.21779021   0.84525978    1.0206273   0.73611653   -1.2465374            1    1.5033438    2.0308107    2.0367685   0.44245206 -0.025003975 -0.020529202 -0.048140347     1.366088    1.3847447   0.70409975  0.066666667    1.4522706        0.001 0.00017602494    5.6810132    2.5037953    34.413227 -0.007400854  -0.17108962 -0.012203188   0.14897158  -0.64730701    2.8515393 
  132000    4.1834419    1.2736541    2.9097878  -0.22539512    0.8491933    1.0169689   0.74478203   -1.2465374            1    1.3570189    1.8977363    1.9234075   0.24991289 -0.010119394 -0.092866227  0.011440662    1.2181474     1.238845   0.70412384  0.066666667    1.4382744        0.001 0.00017603096    5.6808188    2.5007267    34.413227 0.00083656832  -0.17437529 0.0024483585   0.18734315     2.046426   -1.4711582 
  133000    4.1627446    1.2732546    2.8894899  -0.21855718   0.84892697    1.0233829   0.74035241   -1.2465374            1    1.4645633    1.9972117    1.9965594   0.39991884 0.0028250985  -0.15053939  0.033197329    1.3265177    1.3456441   0.70430413  0.066666667    1.4409848        0.001 0.00017607603    5.6793646     2.480362    34.413227 0.0024133055  -0.22344338 0.0049490454   0.16727597    2.4221349  -0.32329348 
  134000    4.1505648    1.2589007    2.8916641  -0.22484632   0.83935666    1.0087956   0.73390707   -1.2465374            1    1.4432692    1.9753519    1.9655428    0.3889128 -0.001506679 -0.074133943 -0.023498772    1.3064254     1.326045   0.70371711  0.066666667    1.4456761        0.001 0.00017592928    5.6841022    2.4994746    34.413227 -0.015062128  -0.19029173 -0.0031988964   0.21342817     1.239358    2.2438856 
  135000    4.1741379    1.2659332    2.9082048  -0.20722406   0.84404546    1.0030948   0.74507152   -1.2465374            1    1.4682919    1.9940175    1.9885004   0.42235778 0.0076405473  0.040457084 -0.016435018    1.3293664    1.3517302   0.69408521  0.066666667    1.4333969        0.001 0.0001735213    5.7629812     2.501368    34.413227 -0.0054050781   -0.2041753 -0.0074419953   0.20280498     0.440516    0.9963569 
  136000    4.1975956    1.2705879    2.9270077  -0.21181178   0.84714894    1.0069049   0.74773516   -1.2465374            1    1.3150628    1.8816137    1.8601516   0.20342312 -0.010869283   0.03473742 -0.00055593656    1.1756406    1.1980584   0.70235953  0.066666667    1.4247537        0.001 0.00017558988    5.6950889    2.5279259    34.413227 0.0038616099  -0.15638217 -0.0058717043   0.13642457    1.8434767   0.65947562 
  137000    4.1714637    1.2654712    2.9059925  -0.21672366   0.84373744    1.0104036    0.7400166   -1.2465374            1    1.3814459    1.9409018    1.9470715    0.2563643 -0.002338261 -0.072270789 -0.036351779    1.2434629    1.2640348   0.71042375  0.066666667     1.455489        0.001 0.00017760594    5.6304424    2.5071345    34.413227 0.0021348498  -0.22465873 0.0096145861    0.1993581    1.5826429     1.198956 
  138000    4.1746304    1.2964452    2.8781852  -0.22808189     0.864389    1.0268933   0.76326546   -1.2465374            1    1.4315505    1.9635971    1.9708026   0.36025191 -0.0070004016  -0.16748614 -0.0015527258    1.2892326    1.3122234   0.70772295  0.066666667    1.4535392        0.001 0.00017693074    5.6519292    2.4872505    34.413227 -0.0064591171  -0.18198469  0.007757739   0.20933728    1.5665496    1.0209929 
  139000    4.1788098    1.2865728     2.892237  -0.22632846   0.85780671    1.0055184   0.76590078   -1.2465374            1    1.4082277    1.9272191    1.9497878   0.34767618 0.0038805532  -0.14018715 -0.0081910495    1.2654184    1.2913844   0.69367601  0.066666667    1.4504453        0.001  0.000173419    5.7663808    2.4984059    34.413227 0.0042738221  -0.19270027 -0.0033096977   0.17013317   0.70198531     1.447441 
  140000    4.1870152     1.265863    2.9211523  -0.21596349   0.84399866    1.0071988   0.74243794   -1.2465374            1    1.3849719    1.9482592    1.9401273   0.26652908 -0.0017466511 -0.060102024 -0.040703107    1.2465374    1.2679333   0.69803941  0.066666667    1.4456432        0.001 0.00017450985    5.7303355    2.4893512    34.413227 -0.0024501849  -0.19322794 -0.0077409554   0.17152403   -2.0368686     1.766173 
Loop time of 54.163 on 1 procs for 40000 steps with 9376 atoms

Performance: 319037.186 tau/day, 738.512 timesteps/s
99.4% CPU use with 1 MPI tasks x 1 OpenMP threads

MPI task timing breakdown:
Section |  min time  |  avg time  |  max time  |%varavg| %total
---------------------------------------------------------------
Pair    | 6.0755     | 6.0755     | 6.0755     |   0.0 | 11.22
Bond    | 13.388     | 13.388     | 13.388     |   0.0 | 24.72
Neigh   | 19.243     | 19.243     | 19.243     |   0.0 | 35.53
Comm    | 1.0606     | 1.0606     | 1.0606     |   0.0 |  1.96
Output  | 0.088445   | 0.088445   | 0.088445   |   0.0 |  0.16
Modify  | 13.19      | 13.19      | 13.19      |   0.0 | 24.35
Other   |            | 1.117      |            |       |  2.06

Nlocal:    9376 ave 9376 max 9376 min
Histogram: 1 0 0 0 0 0 0 0 0 0
Nghost:    1724 ave 1724 max 1724 min
Histogram: 1 0 0 0 0 0 0 0 0 0
Neighs:    13291 ave 13291 max 13291 min
Histogram: 1 0 0 0 0 0 0 0 0 0

Total # of neighbors = 13291
Ave neighs/atom = 1.41756
Ave special neighs/atom = 6.92833
Neighbor list builds = 5705
Dangerous builds = 0
