9376
Atoms. Timestep: 40000
1 15 3.55271e-15 12.1843
1 15.7937 29.2063 12.1843
1 15.8135 29.96 11.3599
1 15.036 29.176 11.3413
1 16.5874 3.55271e-15 12.1843
1 17.3811 29.2063 12.1843
1 17.3743 29.9456 11.3663
1 16.6008 29.1583 11.4056
1 18.1748 3.55271e-15 12.1843
1 18.9685 29.2063 12.1843
1 18.9598 29.9663 11.364
1 18.191 29.1797 11.3995
1 19.7622 3.55271e-15 12.1843
1 20.5559 29.2063 12.1843
1 20.5765 29.9784 11.3506
1 19.7724 29.2009 11.3718
1 21.3496 3.55271e-15 12.1843
1 22.1433 29.2063 12.1843
1 22.1435 29.9127 11.3707
1 21.3402 29.193 11.3812
1 22.937 3.55271e-15 12.1843
1 23.7307 29.2063 12.1843
1 23.7467 29.9453 11.3529
1 22.9178 29.1419 11.3771
1 24.5244 3.55271e-15 12.1843
1 25.3181 29.2063 12.1843
1 25.3277 29.9293 11.3679
1 24.5352 29.1689 11.394
1 26.1118 3.55271e-15 12.1843
1 26.9055 29.2063 12.1843
1 26.9286 29.9163 11.353
1 26.1377 29.1496 11.368
1 27.6992 3.55271e-15 12.1843
1 28.4929 29.2063 12.1843
1 28.4855 29.9307 11.3438
1 27.7173 29.1797 11.3725
1 29.2866 3.55271e-15 12.1843
1 0.08031 29.2063 12.1843
1 0.0762948 29.9308 11.3637
1 29.2882 29.1713 11.3826
1 0.874011 3.55271e-15 12.1843
1 1.66771 29.2063 12.1843
1 1.66002 29.9615 11.3227
1 0.870716 29.192 11.3661
1 2.46141 3.55271e-15 12.1843
1 3.25511 29.2063 12.1843
1 3.21845 29.9279 11.3659
1 2.47024 29.1713 11.3589
1 4.04881 3.55271e-15 12.1843
1 4.84251 29.2063 12.1843
1 4.82644 29.9186 11.3741
1 4.04679 29.1557 11.4084
1 5.63621 3.55271e-15 12.1843
1 6.42991 29.2063 12.1843
1 6.44648 29.9355 11.3482
1 5.62072 29.1763 11.4019
1 7.22361 3.55271e-15 12.1843
1 8.01732 29.2063 12.1843
1 7.99955 29.9362 11.3387
1 7.1893 29.1793 11.3924
1 8.81102 3.55271e-15 12.1843
1 9.60472 29.2063 12.1843
1 9.60807 29.9584 11.3727
1 8.82455 29.1973 11.3821
1 10.3984 3.55271e-15 12.1843
1 11.1921 29.2063 12.1843
1 11.1738 29.9388 11.346
1 10.4048 29.1965 11.3521
1 11.9858 3.55271e-15 12.1843
1 12.7795 29.2063 12.1843
1 12.7853 29.9482 11.3366
1 11.9784 29.1729 11.4248
1 13.5732 3.55271e-15 12.1843
1 14.3669 29.2063 12.1843
1 14.29 29.9121 11.3247
1 13.5069 29.1851 11.3941
1 15 28.4126 12.1843
1 15.7937 27.6189 12.1843
1 15.7855 28.3822 11.3713
1 15.0265 27.5742 11.3709
1 16.5874 28.4126 12.1843
1 17.3811 27.6189 12.1843
1 17.395 28.4026 11.3963
1 16.5865 27.6222 11.4024
1 18.1748 28.4126 12.1843
1 18.9685 27.6189 12.1843
1 18.9994 28.4081 11.4004
1 18.1649 27.61 11.4054
1 19.7622 28.4126 12.1843
1 20.5559 27.6189 12.1843
1 20.5568 28.4208 11.3629
1 19.7785 27.5981 11.3994
1 21.3496 28.4126 12.1843
1 22.1433 27.6189 12.1843
1 22.1113 28.3985 11.3837
1 21.3244 27.618 11.3853
1 22.937 28.4126 12.1843
1 23.7307 27.6189 12.1843
1 23.747 28.4077 11.3943
1 22.9536 27.6149 11.3851
1 24.5244 28.4126 12.1843
1 25.3181 27.6189 12.1843
1 25.335 28.3679 11.4063
1 24.5235 27.5842 11.3947
1 26.1118 28.4126 12.1843
1 26.9055 27.6189 12.1843
1 26.9227 28.4071 11.3859
1 26.114 27.6032 11.3984
1 27.6992 28.4126 12.1843
1 28.4929 27.6189 12.1843
1 28.5048 28.3946 11.3878
1 27.7074 27.5836 11.4151
1 29.2866 28.4126 12.1843
1 0.08031 27.6189 12.1843
1 0.0876988 28.4034 11.3552
1 29.2913 27.6038 11.376
1 0.874011 28.4126 12.1843
1 1.66771 27.6189 12.1843
1 1.66115 28.3886 11.3766
1 0.884609 27.5959 11.3934
1 2.46141 28.4126 12.1843
1 3.25511 27.6189 12.1843
1 3.24683 28.3747 11.3951
1 2.46513 27.5929 11.4144
1 4.04881 28.4126 12.1843
1 4.84251 27.6189 12.1843
1 4.83579 28.3626 11.3916
1 4.05701 27.5711 11.408
1 5.63621 28.4126 12.1843
1 6.42991 27.6189 12.1843
1 6.44199 28.3679 11.3748
1 5.62265 27.6007 11.3697
1 7.22361 28.4126 12.1843
1 8.01732 27.6189 12.1843
1 7.99802 28.403 11.3849
1 7.21328 27.6083 11.3899
1 8.81102 28.4126 12.1843
1 9.60472 27.6189 12.1843
1 9.60259 28.4215 11.3643
1 8.80879 27.6221 11.392
1 10.3984 28.4126 12.1843
1 11.1921 27.6189 12.1843
1 11.185 28.4287 11.4138
1 10.3648 27.6296 11.4054
1 11.9858 28.4126 12.1843
1 12.7795 27.6189 12.1843
1 12.7484 28.3905 11.3747
1 11.9708 27.6193 11.3943
1 13.5732 28.4126 12.1843
1 14.3669 27.6189 12.1843
1 14.2744 28.3975 11.3455
1 13.5181 27.6197 11.354
1 15 26.8252 12.1843
1 15.7937 26.0315 12.1843
1 15.834 26.8133 11.3998
1 15.0941 26.0127 11.3581
1 16.5874 26.8252 12.1843
1 17.3811 26.0315 12.1843
1 17.3697 26.8308 11.3628
1 16.634 26.0377 11.3985
1 18.1748 26.8252 12.1843
1 18.9685 26.0315 12.1843
1 18.9938 26.8172 11.3919
1 18.1726 26.0311 11.4034
1 19.7622 26.8252 12.1843
1 20.5559 26.0315 12.1843
1 20.5817 26.8126 11.4202
1 19.7746 26.0107 11.3993
1 21.3496 26.8252 12.1843
1 22.1433 26.0315 12.1843
1 22.1284 26.8191 11.4164
1 21.3355 26.029 11.3946
1 22.937 26.8252 12.1843
1 23.7307 26.0315 12.1843
1 23.7429 26.8312 11.4014
1 22.9397 26.0467 11.379
1 24.5244 26.8252 12.1843
1 25.3181 26.0315 12.1843
1 25.3431 26.8207 11.3939
1 24.5126 26.0258 11.3786
1 26.1118 26.8252 12.1843
1 26.9055 26.0315 12.1843
1 26.9005 26.8218 11.3868
1 26.1234 26.0134 11.4049
1 27.6992 26.8252 12.1843
1 28.4929 26.0315 12.1843
1 28.5071 26.8039 11.3792
1 27.6993 26.03 11.3854
1 29.2866 26.8252 12.1843
1 0.08031 26.0315 12.1843
1 0.0741553 26.8284 11.3949
1 29.267 26.0217 11.386
1 0.874011 26.8252 12.1843
1 1.66771 26.0315 12.1843
1 1.66543 26.817 11.408
1 0.88191 26.0191 11.3898
1 2.46141 26.8252 12.1843
1 3.25511 26.0315 12.1843
1 3.2689 26.7788 11.3758
1 2.47339 26.0184 11.3973
1 4.04881 26.8252 12.1843
1 4.84251 26.0315 12.1843
1 4.85473 26.7561 11.3933
1 4.03299 25.9949 11.3684
1 5.63621 26.8252 12.1843
1 6.42991 26.0315 12.1843
1 6.42742 26.8133 11.3727
1 5.63443 26.0175 11.385
1 7.22361 26.8252 12.1843
1 8.01732 26.0315 12.1843
1 8.00466 26.8035 11.4011
1 7.21171 26.0062 11.3686
1 8.81102 26.8252 12.1843
1 9.60472 26.0315 12.1843
1 9.64257 26.812 11.4195
1 8.82203 26.0092 11.4125
1 10.3984 26.8252 12.1843
1 11.1921 26.0315 12.1843
1 11.1894 26.8124 11.4271
1 10.4039 26.0098 11.3894
1 11.9858 26.8252 12.1843
1 12.7795 26.0315 12.1843
1 12.7508 26.7953 11.4101
1 11.9781 26.0221 11.4081
1 13.5732 26.8252 12.1843
1 14.3669 26.0315 12.1843
1 14.2912 26.8336 11.3424
1 13.5513 26.023 11.3839
1 15 25.2378 12.1843
1 15.7937 24.4441 12.1843
1 15.8368 25.2355 11.3909
1 15.0861 24.4487 11.3249
1 16.5874 25.2378 12.1843
1 17.3811 24.4441 12.1843
1 17.3994 25.2202 11.4059
1 16.615 24.4517 11.3997
1 18.1748 25.2378 12.1843
1 18.9685 24.4441 12.1843
1 18.9665 25.2457 11.3855
1 18.1822 24.4424 11.4107
1 19.7622 25.2378 12.1843
1 20.5559 24.4441 12.1843
1 20.5729 25.2311 11.3969
1 19.7802 24.4412 11.4183
1 21.3496 25.2378 12.1843
1 22.1433 24.4441 12.1843
1 22.1214 25.2333 11.4052
1 21.3587 24.4578 11.3706
1 22.937 25.2378 12.1843
1 23.7307 24.4441 12.1843
1 23.7417 25.2251 11.4076
1 22.9346 24.4279 11.3864
1 24.5244 25.2378 12.1843
1 25.3181 24.4441 12.1843
1 25.3264 25.2309 11.4031
1 24.5293 24.4342 11.4261
1 26.1118 25.2378 12.1843
1 26.9055 24.4441 12.1843
1 26.9099 25.2426 11.3745
1 26.0989 24.4635 11.4162
1 27.6992 25.2378 12.1843
1 28.4929 24.4441 12.1843
1 28.4746 25.24 11.3749
1 27.6885 24.4709 11.3911
1 29.2866 25.2378 12.1843
1 0.08031 24.4441 12.1843
1 0.0710871 25.2231 11.3866
1 29.2725 24.472 11.3899
1 0.874011 25.2378 12.1843
1 1.66771 24.4441 12.1843
1 1.65958 25.217 11.3747
1 0.869749 24.4266 11.3993
1 2.46141 25.2378 12.1843
1 3.25511 24.4441 12.1843
1 3.25191 25.2412 11.3909
1 2.49694 24.4316 11.3708
1 4.04881 25.2378 12.1843
1 4.84251 24.4441 12.1843
1 4.82611 25.2272 11.399
1 4.04446 24.4257 11.3793
1 5.63621 25.2378 12.1843
1 6.42991 24.4441 12.1843
1 6.43006 25.255 11.3767
1 5.64219 24.458 11.3819
1 7.22361 25.2378 12.1843
1 8.01732 24.4441 12.1843
1 8.03992 25.2179 11.3917
1 7.22052 24.4287 11.3845
1 8.81102 25.2378 12.1843
1 9.60472 24.4441 12.1843
1 9.59219 25.235 11.4206
1 8.8329 24.4147 11.3722
1 10.3984 25.2378 12.1843
1 11.1921 24.4441 12.1843
1 11.2054 25.2004 11.3695
1 10.425 24.4518 11.4092
1 11.9858 25.2378 12.1843
1 12.7795 24.4441 12.1843
1 12.7714 25.2151 11.4003
1 11.9553 24.4337 11.3904
1 13.5732 25.2378 12.1843
1 14.3669 24.4441 12.1843
1 14.3117 25.2264 11.3617
1 13.5724 24.4175 11.3835
1 15 23.6504 12.1843
1 15.7937 22.8567 12.1843
1 15.8109 23.6509 11.3733
1 15.072 22.8375 11.3585
1 16.5874 23.6504 12.1843
1 17.3811 22.8567 12.1843
1 17.3951 23.6237 11.4079
1 16.5988 22.8659 11.389
1 18.1748 23.6504 12.1843
1 18.9685 22.8567 12.1843
1 18.9695 23.6522 11.3944
1 18.1729 22.8462 11.3929
1 19.7622 23.6504 12.1843
1 20.5559 22.8567 12.1843
1 20.5653 23.6473 11.3975
1 19.7765 22.8672 11.3993
1 21.3496 23.6504 12.1843
1 22.1433 22.8567 12.1843
1 22.1263 23.6347 11.3841
1 21.3549 22.8488 11.3743
1 22.937 23.6504 12.1843
1 23.7307 22.8567 12.1843
1 23.7277 23.6429 11.3899
1 22.9349 22.8462 11.4174
1 24.5244 23.6504 12.1843
1 25.3181 22.8567 12.1843
1 25.3009 23.6381 11.4012
1 24.5089 22.8473 11.3976
1 26.1118 23.6504 12.1843
1 26.9055 22.8567 12.1843
1 26.8996 23.6706 11.3787
1 26.127 22.8598 11.3845
1 27.6992 23.6504 12.1843
1 28.4929 22.8567 12.1843
1 28.48 23.6684 11.3848
1 27.701 22.8541 11.371
1 29.2866 23.6504 12.1843
1 0.08031 22.8567 12.1843
1 0.0674432 23.6386 11.3775
1 29.2865 22.8684 11.3854
1 0.874011 23.6504 12.1843
1 1.66771 22.8567 12.1843
1 1.68186 23.6728 11.3843
1 0.896018 22.8411 11.3694
1 2.46141 23.6504 12.1843
1 3.25511 22.8567 12.1843
1 3.261 23.6347 11.4123
1 2.47341 22.8469 11.4039
1 4.04881 23.6504 12.1843
1 4.84251 22.8567 12.1843
1 4.83194 23.6462 11.3898
1 4.04679 22.8497 11.3668
1 5.63621 23.6504 12.1843
1 6.42991 22.8567 12.1843
1 6.41279 23.6536 11.389
1 5.61018 22.866 11.3976
1 7.22361 23.6504 12.1843
1 8.01732 22.8567 12.1843
1 8.02182 23.6544 11.3803
1 7.21008 22.8685 11.3786
1 8.81102 23.6504 12.1843
1 9.60472 22.8567 12.1843
1 9.61636 23.6391 11.3604
1 8.80477 22.8664 11.3897
1 10.3984 23.6504 12.1843
1 11.1921 22.8567 12.1843
1 11.1842 23.6424 11.3937
1 10.4181 22.8676 11.3938
1 11.9858 23.6504 12.1843
1 12.7795 22.8567 12.1843
1 12.7707 23.6285 11.3961
1 12.0007 22.8407 11.3938
1 13.5732 23.6504 12.1843
1 14.3669 22.8567 12.1843
1 14.3222 23.6412 11.3621
1 13.5528 22.8626 11.3663
1 15 22.063 12.1843
1 15.7937 21.2693 12.1843
1 15.8196 22.0522 11.3853
1 15.0501 21.297 11.3581
1 16.5874 22.063 12.1843
1 17.3811 21.2693 12.1843
1 17.3954 22.0697 11.3955
1 16.6189 21.2663 11.3766
1 18.1748 22.063 12.1843
1 18.9685 21.2693 12.1843
1 18.9936 22.0358 11.3979
1 18.1633 21.2657 11.3798
1 19.7622 22.063 12.1843
1 20.5559 21.2693 12.1843
1 20.5885 22.0894 11.3889
1 19.7915 21.2602 11.3774
1 21.3496 22.063 12.1843
1 22.1433 21.2693 12.1843
1 22.1439 22.0385 11.4169
1 21.3517 21.2514 11.3961
1 22.937 22.063 12.1843
1 23.7307 21.2693 12.1843
1 23.7191 22.0443 11.3907
1 22.9326 21.2778 11.3889
1 24.5244 22.063 12.1843
1 25.3181 21.2693 12.1843
1 25.3126 22.0468 11.374
1 24.5329 21.2732 11.3927
1 26.1118 22.063 12.1843
1 26.9055 21.2693 12.1843
1 26.9295 22.0567 11.4191
1 26.12 21.2863 11.3569
1 27.6992 22.063 12.1843
1 28.4929 21.2693 12.1843
1 28.4958 22.0538 11.3984
1 27.7448 21.2559 11.3924
1 29.2866 22.063 12.1843
1 0.08031 21.2693 12.1843
1 0.0792131 22.0514 11.4206
1 29.2794 21.2155 11.3889
1 0.874011 22.063 12.1843
1 1.66771 21.2693 12.1843
1 1.68793 22.0516 11.3612
1 0.874059 21.2756 11.3815
1 2.46141 22.063 12.1843
1 3.25511 21.2693 12.1843
1 3.25149 22.0766 11.3943
1 2.45528 21.2707 11.3867
1 4.04881 22.063 12.1843
1 4.84251 21.2693 12.1843
1 4.82787 22.058 11.3928
1 4.05184 21.2778 11.3891
1 5.63621 22.063 12.1843
1 6.42991 21.2693 12.1843
1 6.42552 22.0856 11.3897
1 5.66012 21.276 11.4085
1 7.22361 22.063 12.1843
1 8.01732 21.2693 12.1843
1 7.99661 22.0726 11.3848
1 7.20212 21.268 11.3871
1 8.81102 22.063 12.1843
1 9.60472 21.2693 12.1843
1 9.6188 22.0652 11.3686
1 8.80663 21.2711 11.4067
1 10.3984 22.063 12.1843
1 11.1921 21.2693 12.1843
1 11.1936 22.0597 11.3887
1 10.386 21.287 11.3891
1 11.9858 22.063 12.1843
1 12.7795 21.2693 12.1843
1 12.7842 22.0645 11.3988
1 11.9827 21.2771 11.4191
1 13.5732 22.063 12.1843
1 14.3669 21.2693 12.1843
1 14.3263 22.0796 11.3317
1 13.5547 21.2745 11.3592
1 15 20.4756 12.1843
1 15.7937 19.6819 12.1843
1 15.8203 20.5023 11.3866
1 15.079 19.6633 11.3402
1 16.5874 20.4756 12.1843
1 17.3811 19.6819 12.1843
1 17.4096 20.4645 11.3703
1 16.6253 19.7057 11.3913
1 18.1748 20.4756 12.1843
1 18.9685 19.6819 12.1843
1 18.967 20.4957 11.4032
1 18.2024 19.6964 11.3912
1 19.7622 20.4756 12.1843
1 20.5559 19.6819 12.1843
1 20.5702 20.4554 11.3979
1 19.7503 19.6841 11.3662
1 21.3496 20.4756 12.1843
1 22.1433 19.6819 12.1843
1 22.1632 20.4676 11.4077
1 21.3544 19.6919 11.3798
1 22.937 20.4756 12.1843
1 23.7307 19.6819 12.1843
1 23.7628 20.4791 11.3618
1 22.9479 19.6757 11.3844
1 24.5244 20.4756 12.1843
1 25.3181 19.6819 12.1843
1 25.3147 20.4746 11.3751
1 24.5277 19.6811 11.396
1 26.1118 20.4756 12.1843
1 26.9055 19.6819 12.1843
1 26.9191 20.4646 11.3978
1 26.1124 19.6868 11.39
1 27.6992 20.4756 12.1843
1 28.4929 19.6819 12.1843
1 28.4862 20.4542 11.3872
1 27.6984 19.6985 11.3919
1 29.2866 20.4756 12.1843
1 0.08031 19.6819 12.1843
1 0.0894973 20.4832 11.3716
1 29.2944 19.6735 11.3744
1 0.874011 20.4756 12.1843
1 1.66771 19.6819 12.1843
1 1.66999 20.4629 11.3872
1 0.88548 19.6621 11.4008
1 2.46141 20.4756 12.1843
1 3.25511 19.6819 12.1843
1 3.27211 20.4723 11.3813
1 2.47846 19.7021 11.3693
1 4.04881 20.4756 12.1843
1 4.84251 19.6819 12.1843
1 4.85317 20.4763 11.4212
1 4.07337 19.6806 11.3849
1 5.63621 20.4756 12.1843
1 6.42991 19.6819 12.1843
1 6.41925 20.4701 11.4085
1 5.62524 19.6688 11.4079
1 7.22361 20.4756 12.1843
1 8.01732 19.6819 12.1843
1 8.0182 20.4849 11.4129
1 7.23283 19.6869 11.4192
1 8.81102 20.4756 12.1843
1 9.60472 19.6819 12.1843
1 9.59658 20.4808 11.39
1 8.81295 19.6851 11.4028
1 10.3984 20.4756 12.1843
1 11.1921 19.6819 12.1843
1 11.182 20.4773 11.388
1 10.3855 19.6632 11.3804
1 11.9858 20.4756 12.1843
1 12.7795 19.6819 12.1843
1 12.7496 20.4869 11.3836
1 11.9827 19.6609 11.3955
1 13.5732 20.4756 12.1843
1 14.3669 19.6819 12.1843
1 14.3048 20.4707 11.3562
1 13.5296 19.6721 11.4017
1 15 18.8882 12.1843
1 15.7937 18.0945 12.1843
1 15.8012 18.8959 11.3791
1 15.0785 18.1153 11.3552
1 16.5874 18.8882 12.1843
1 17.3811 18.0945 12.1843
1 17.4025 18.9126 11.4
1 16.6022 18.1065 11.3918
1 18.1748 18.8882 12.1843
1 18.9685 18.0945 12.1843
1 18.9706 18.8942 11.406
1 18.1802 18.0936 11.3848
1 19.7622 18.8882 12.1843
1 20.5559 18.0945 12.1843
1 20.5723 18.8983 11.4107
1 19.7684 18.1181 11.3884
1 21.3496 18.8882 12.1843
1 22.1433 18.0945 12.1843
1 22.1539 18.8817 11.3843
1 21.3583 18.0914 11.3886
1 22.937 18.8882 12.1843
1 23.7307 18.0945 12.1843
1 23.7337 18.874 11.3696
1 22.9435 18.0942 11.4048
1 24.5244 18.8882 12.1843
1 25.3181 18.0945 12.1843
1 25.3046 18.9065 11.3875
1 24.523 18.1242 11.3749
1 26.1118 18.8882 12.1843
1 26.9055 18.0945 12.1843
1 26.8976 18.8663 11.3879
1 26.1026 18.0877 11.3913
1 27.6992 18.8882 12.1843
1 28.4929 18.0945 12.1843
1 28.4872 18.8891 11.4108
1 27.6882 18.1144 11.3837
1 29.2866 18.8882 12.1843
1 0.08031 18.0945 12.1843
1 0.0640184 18.8804 11.3786
1 29.2756 18.1185 11.3761
1 0.874011 18.8882 12.1843
1 1.66771 18.0945 12.1843
1 1.66247 18.8803 11.3846
1 0.867909 18.1105 11.4067
1 2.46141 18.8882 12.1843
1 3.25511 18.0945 12.1843
1 3.26723 18.8868 11.4
1 2.42655 18.0937 11.3747
1 4.04881 18.8882 12.1843
1 4.84251 18.0945 12.1843
1 4.82366 18.8769 11.3828
1 4.0293 18.0936 11.414
1 5.63621 18.8882 12.1843
1 6.42991 18.0945 12.1843
1 6.40842 18.8766 11.4116
1 5.62171 18.0816 11.4001
1 7.22361 18.8882 12.1843
1 8.01732 18.0945 12.1843
1 8.00369 18.9026 11.3867
1 7.2149 18.1054 11.3928
1 8.81102 18.8882 12.1843
1 9.60472 18.0945 12.1843
1 9.60002 18.911 11.3911
1 8.79507 18.0938 11.3948
1 10.3984 18.8882 12.1843
1 11.1921 18.0945 12.1843
1 11.1742 18.8628 11.3844
1 10.4018 18.1113 11.3775
1 11.9858 18.8882 12.1843
1 12.7795 18.0945 12.1843
1 12.7586 18.8664 11.3928
1 11.9832 18.075 11.3944
1 13.5732 18.8882 12.1843
1 14.3669 18.0945 12.1843
1 14.3104 18.8993 11.3424
1 13.5629 18.084 11.3902
1 15 17.3008 12.1843
1 15.7937 16.5071 12.1843
1 15.8213 17.2772 11.3533
1 15.0659 16.4946 11.3545
1 16.5874 17.3008 12.1843
1 17.3811 16.5071 12.1843
1 17.3923 17.2991 11.3879
1 16.5992 16.5108 11.3699
1 18.1748 17.3008 12.1843
1 18.9685 16.5071 12.1843
1 18.9981 17.3149 11.398
1 18.1737 16.5389 11.3949
1 19.7622 17.3008 12.1843
1 20.5559 16.5071 12.1843
1 20.5394 17.3167 11.3911
1 19.7524 16.5094 11.3858
1 21.3496 17.3008 12.1843
1 22.1433 16.5071 12.1843
1 22.1427 17.3225 11.398
1 21.3279 16.5174 11.3954
1 22.937 17.3008 12.1843
1 23.7307 16.5071 12.1843
1 23.7375 17.2996 11.3804
1 22.9548 16.5318 11.396
1 24.5244 17.3008 12.1843
1 25.3181 16.5071 12.1843
1 25.3361 17.2981 11.3947
1 24.5231 16.5073 11.4001
1 26.1118 17.3008 12.1843
1 26.9055 16.5071 12.1843
1 26.9028 17.2748 11.389
1 26.117 16.492 11.3946
1 27.6992 17.3008 12.1843
1 28.4929 16.5071 12.1843
1 28.4955 17.303 11.4069
1 27.6872 16.5082 11.3592
1 29.2866 17.3008 12.1843
1 0.08031 16.5071 12.1843
1 0.066735 17.3079 11.3905
1 29.2703 16.5033 11.3899
1 0.874011 17.3008 12.1843
1 1.66771 16.5071 12.1843
1 1.65761 17.3193 11.406
1 0.888793 16.4929 11.3695
1 2.46141 17.3008 12.1843
1 3.25511 16.5071 12.1843
1 3.22591 17.3083 11.3914
1 2.47027 16.4859 11.3867
1 4.04881 17.3008 12.1843
1 4.84251 16.5071 12.1843
1 4.82353 17.3211 11.3885
1 4.05428 16.4988 11.3999
1 5.63621 17.3008 12.1843
1 6.42991 16.5071 12.1843
1 6.43913 17.3089 11.3885
1 5.62363 16.5353 11.3888
1 7.22361 17.3008 12.1843
1 8.01732 16.5071 12.1843
1 8.01824 17.3014 11.4025
1 7.2137 16.5236 11.3761
1 8.81102 17.3008 12.1843
1 9.60472 16.5071 12.1843
1 9.58277 17.3008 11.3942
1 8.81911 16.4979 11.3918
1 10.3984 17.3008 12.1843
1 11.1921 16.5071 12.1843
1 11.1853 17.2887 11.3965
1 10.3644 16.499 11.3923
1 11.9858 17.3008 12.1843
1 12.7795 16.5071 12.1843
1 12.7513 17.3283 11.403
1 11.9841 16.4794 11.3957
1 13.5732 17.3008 12.1843
1 14.3669 16.5071 12.1843
1 14.2999 17.297 11.3705
1 13.5606 16.5085 11.368
1 15 15.7134 12.1843
1 15.7937 14.9197 12.1843
1 15.8292 15.7128 11.4221
1 15.0869 14.9359 11.3603
1 16.5874 15.7134 12.1843
1 17.3811 14.9197 12.1843
1 17.3797 15.7209 11.4111
1 16.597 14.9502 11.4119
1 18.1748 15.7134 12.1843
1 18.9685 14.9197 12.1843
1 18.9887 15.7149 11.3925
1 18.195 14.9228 11.3739
1 19.7622 15.7134 12.1843
1 20.5559 14.9197 12.1843
1 20.5365 15.7297 11.3976
1 19.768 14.9243 11.3832
1 21.3496 15.7134 12.1843
1 22.1433 14.9197 12.1843
1 22.1337 15.7325 11.3822
1 21.3263 14.9266 11.3888
1 22.937 15.7134 12.1843
1 23.7307 14.9197 12.1843
1 23.7299 15.7295 11.3868
1 22.9479 14.9163 11.4104
1 24.5244 15.7134 12.1843
1 25.3181 14.9197 12.1843
1 25.2937 15.7241 11.4111
1 24.5199 14.9222 11.4103
1 26.1118 15.7134 12.1843
1 26.9055 14.9197 12.1843
1 26.8845 15.7052 11.3595
1 26.0787 14.9172 11.3639
1 27.6992 15.7134 12.1843
1 28.4929 14.9197 12.1843
1 28.4851 15.7301 11.3769
1 27.6861 14.9391 11.3895
1 29.2866 15.7134 12.1843
1 0.08031 14.9197 12.1843
1 0.0562945 15.7134 11.3761
1 29.2878 14.8956 11.3893
1 0.874011 15.7134 12.1843
1 1.66771 14.9197 12.1843
1 1.68462 15.6913 11.4017
1 0.862552 14.922 11.3868
1 2.46141 15.7134 12.1843
1 3.25511 14.9197 12.1843
1 3.28894 15.6898 11.3815
1 2.49675 14.9106 11.3491
1 4.04881 15.7134 12.1843
1 4.84251 14.9197 12.1843
1 4.85266 15.7274 11.3537
1 4.06202 14.9367 11.3723
1 5.63621 15.7134 12.1843
1 6.42991 14.9197 12.1843
1 6.41235 15.7232 11.3918
1 5.6222 14.9216 11.3878
1 7.22361 15.7134 12.1843
1 8.01732 14.9197 12.1843
1 8.00297 15.7138 11.3996
1 7.22611 14.9372 11.3734
1 8.81102 15.7134 12.1843
1 9.60472 14.9197 12.1843
1 9.58836 15.6907 11.407
1 8.80632 14.8918 11.3866
1 10.3984 15.7134 12.1843
1 11.1921 14.9197 12.1843
1 11.1842 15.7256 11.398
1 10.3884 14.9197 11.3978
1 11.9858 15.7134 12.1843
1 12.7795 14.9197 12.1843
1 12.7997 15.718 11.378
1 12.0058 14.9185 11.4081
1 13.5732 15.7134 12.1843
1 14.3669 14.9197 12.1843
1 14.2932 15.7298 11.3791
1 13.5713 14.9423 11.3941
1 15 14.126 12.1843
1 15.7937 13.3323 12.1843
1 15.8347 14.1298 11.3858
1 15.087 13.3222 11.3691
1 16.5874 14.126 12.1843
1 17.3811 13.3323 12.1843
1 17.3931 14.1263 11.3614
1 16.6048 13.3462 11.4086
1 18.1748 14.126 12.1843
1 18.9685 13.3323 12.1843
1 18.9683 14.1287 11.4015
1 18.1679 13.3449 11.3909
1 19.7622 14.126 12.1843
1 20.5559 13.3323 12.1843
1 20.5777 14.1068 11.3865
1 19.772 13.3306 11.3907
1 21.3496 14.126 12.1843
1 22.1433 13.3323 12.1843
1 22.1272 14.1359 11.3616
1 21.3847 13.3254 11.4009
1 22.937 14.126 12.1843
1 23.7307 13.3323 12.1843
1 23.759 14.121 11.3845
1 22.9424 13.3655 11.3979
1 24.5244 14.126 12.1843
1 25.3181 13.3323 12.1843
1 25.2948 14.1254 11.3776
1 24.5326 13.3323 11.3819
1 26.1118 14.126 12.1843
1 26.9055 13.3323 12.1843
1 26.9087 14.126 11.3949
1 26.1084 13.3669 11.3805
1 27.6992 14.126 12.1843
1 28.4929 13.3323 12.1843
1 28.4855 14.1278 11.3638
1 27.6956 13.3192 11.3798
1 29.2866 14.126 12.1843
1 0.08031 13.3323 12.1843
1 0.0870622 14.135 11.3596
1 29.2792 13.3212 11.3822
1 0.874011 14.126 12.1843
1 1.66771 13.3323 12.1843
1 1.67007 14.1472 11.3543
1 0.852062 13.3394 11.3702
1 2.46141 14.126 12.1843
1 3.25511 13.3323 12.1843
1 3.24597 14.1276 11.4036
1 2.4653 13.3466 11.3755
1 4.04881 14.126 12.1843
1 4.84251 13.3323 12.1843
1 4.85876 14.1305 11.3901
1 4.04226 13.3146 11.3869
1 5.63621 14.126 12.1843
1 6.42991 13.3323 12.1843
1 6.43601 14.1653 11.3872
1 5.6146 13.3244 11.3965
1 7.22361 14.126 12.1843
1 8.01732 13.3323 12.1843
1 7.96106 14.1134 11.3718
1 7.19628 13.3149 11.3808
1 8.81102 14.126 12.1843
1 9.60472 13.3323 12.1843
1 9.60597 14.1127 11.3709
1 8.77249 13.3289 11.3874
1 10.3984 14.126 12.1843
1 11.1921 13.3323 12.1843
1 11.1797 14.1087 11.4024
1 10.4089 13.3461 11.3901
1 11.9858 14.126 12.1843
1 12.7795 13.3323 12.1843
1 12.7844 14.1396 11.4087
1 11.991 13.3185 11.3827
1 13.5732 14.126 12.1843
1 14.3669 13.3323 12.1843
1 14.3438 14.1474 11.3689
1 13.5751 13.3388 11.3807
1 15 12.5386 12.1843
1 15.7937 11.7449 12.1843
1 15.841 12.5585 11.3977
1 15.0696 11.7453 11.3902
1 16.5874 12.5386 12.1843
1 17.3811 11.7449 12.1843
1 17.4112 12.5369 11.3918
1 16.617 11.7485 11.3809
1 18.1748 12.5386 12.1843
1 18.9685 11.7449 12.1843
1 18.9963 12.5624 11.366
1 18.1785 11.7445 11.4175
1 19.7622 12.5386 12.1843
1 20.5559 11.7449 12.1843
1 20.5714 12.5486 11.3959
1 19.7629 11.7597 11.4141
1 21.3496 12.5386 12.1843
1 22.1433 11.7449 12.1843
1 22.152 12.5406 11.3787
1 21.3461 11.7457 11.424
1 22.937 12.5386 12.1843
1 23.7307 11.7449 12.1843
1 23.7424 12.5587 11.4075
1 22.9283 11.7572 11.4002
1 24.5244 12.5386 12.1843
1 25.3181 11.7449 12.1843
1 25.3205 12.5658 11.4016
1 24.5586 11.7404 11.3721
1 26.1118 12.5386 12.1843
1 26.9055 11.7449 12.1843
1 26.8764 12.5254 11.3922
1 26.0789 11.7405 11.4074
1 27.6992 12.5386 12.1843
1 28.4929 11.7449 12.1843
1 28.4822 12.557 11.3778
1 27.6884 11.7265 11.4169
1 29.2866 12.5386 12.1843
1 0.08031 11.7449 12.1843
1 0.0775001 12.5385 11.3909
1 29.2763 11.7511 11.4021
1 0.874011 12.5386 12.1843
1 1.66771 11.7449 12.1843
1 1.68313 12.5698 11.4017
1 0.868712 11.7393 11.3983
1 2.46141 12.5386 12.1843
1 3.25511 11.7449 12.1843
1 3.26258 12.5156 11.3843
1 2.46278 11.7457 11.3978
1 4.04881 12.5386 12.1843
1 4.84251 11.7449 12.1843
1 4.84495 12.5327 11.412
1 4.0364 11.7524 11.4078
1 5.63621 12.5386 12.1843
1 6.42991 11.7449 12.1843
1 6.41013 12.5248 11.3878
1 5.61924 11.7327 11.3832
1 7.22361 12.5386 12.1843
1 8.01732 11.7449 12.1843
1 8.00184 12.5263 11.3825
1 7.23544 11.7147 11.3771
1 8.81102 12.5386 12.1843
1 9.60472 11.7449 12.1843
1 9.59724 12.5612 11.4071
1 8.77897 11.7417 11.376
1 10.3984 12.5386 12.1843
1 11.1921 11.7449 12.1843
1 11.1855 12.541 11.4062
1 10.3933 11.7418 11.3945
1 11.9858 12.5386 12.1843
1 12.7795 11.7449 12.1843
1 12.795 12.5351 11.3896
1 11.9824 11.7359 11.3788
1 13.5732 12.5386 12.1843
1 14.3669 11.7449 12.1843
1 14.2916 12.5292 11.3631
1 13.5211 11.7552 11.4147
1 15 10.9512 12.1843
1 15.7937 10.1575 12.1843
1 15.823 10.9283 11.3718
1 15.0581 10.1671 11.375
1 16.5874 10.9512 12.1843
1 17.3811 10.1575 12.1843
1 17.3834 10.9688 11.3937
1 16.6065 10.1466 11.4083
1 18.1748 10.9512 12.1843
1 18.9685 10.1575 12.1843
1 18.9873 10.9603 11.3571
1 18.1805 10.1739 11.3933
1 19.7622 10.9512 12.1843
1 20.5559 10.1575 12.1843
1 20.5817 10.9555 11.3821
1 19.7734 10.1733 11.3823
1 21.3496 10.9512 12.1843
1 22.1433 10.1575 12.1843
1 22.1386 10.9617 11.3766
1 21.3584 10.157 11.406
1 22.937 10.9512 12.1843
1 23.7307 10.1575 12.1843
1 23.7563 10.9534 11.3965
1 22.938 10.1512 11.3802
1 24.5244 10.9512 12.1843
1 25.3181 10.1575 12.1843
1 25.3233 10.9316 11.3574
1 24.5135 10.1584 11.3627
1 26.1118 10.9512 12.1843
1 26.9055 10.1575 12.1843
1 26.8572 10.9341 11.4196
1 26.1176 10.1453 11.4013
1 27.6992 10.9512 12.1843
1 28.4929 10.1575 12.1843
1 28.4737 10.924 11.388
1 27.682 10.1568 11.3845
1 29.2866 10.9512 12.1843
1 0.08031 10.1575 12.1843
1 0.0654129 10.946 11.3979
1 29.2767 10.1468 11.4131
1 0.874011 10.9512 12.1843
1 1.66771 10.1575 12.1843
1 1.65616 10.9666 11.3773
1 0.871269 10.1577 11.3898
1 2.46141 10.9512 12.1843
1 3.25511 10.1575 12.1843
1 3.22168 10.9339 11.3757
1 2.4429 10.1804 11.3955
1 4.04881 10.9512 12.1843
1 4.84251 10.1575 12.1843
1 4.81366 10.9479 11.3871
1 4.02994 10.1561 11.3634
1 5.63621 10.9512 12.1843
1 6.42991 10.1575 12.1843
1 6.41658 10.9524 11.3896
1 5.6076 10.1697 11.3985
1 7.22361 10.9512 12.1843
1 8.01732 10.1575 12.1843
1 8.00383 10.9472 11.3789
1 7.2209 10.1533 11.368
1 8.81102 10.9512 12.1843
1 9.60472 10.1575 12.1843
1 9.60963 10.9609 11.396
1 8.81362 10.1757 11.3776
1 10.3984 10.9512 12.1843
1 11.1921 10.1575 12.1843
1 11.1758 10.9505 11.3902
1 10.4076 10.1536 11.3944
1 11.9858 10.9512 12.1843
1 12.7795 10.1575 12.1843
1 12.7717 10.9406 11.4054
1 11.9528 10.1512 11.4091
1 13.5732 10.9512 12.1843
1 14.3669 10.1575 12.1843
1 14.2815 10.937 11.3458
1 13.5439 10.1572 11.3957
1 15 9.36379 12.1843
1 15.7937 8.57009 12.1843
1 15.8446 9.36721 11.369
1 15.081 8.58302 11.3724
1 16.5874 9.36379 12.1843
1 17.3811 8.57009 12.1843
1 17.3933 9.34912 11.4109
1 16.5902 8.55517 11.4037
1 18.1748 9.36379 12.1843
1 18.9685 8.57009 12.1843
1 18.999 9.3819 11.3855
1 18.2012 8.57747 11.3784
1 19.7622 9.36379 12.1843
1 20.5559 8.57009 12.1843
1 20.5498 9.35618 11.4097
1 19.7619 8.56322 11.3954
1 21.3496 9.36379 12.1843
1 22.1433 8.57009 12.1843
1 22.1312 9.38369 11.3949
1 21.3724 8.58161 11.402
1 22.937 9.36379 12.1843
1 23.7307 8.57009 12.1843
1 23.7444 9.35741 11.3915
1 22.9557 8.5725 11.3765
1 24.5244 9.36379 12.1843
1 25.3181 8.57009 12.1843
1 25.2913 9.36285 11.4196
1 24.5137 8.5547 11.3793
1 26.1118 9.36379 12.1843
1 26.9055 8.57009 12.1843
1 26.9234 9.36822 11.395
1 26.1087 8.56174 11.4084
1 27.6992 9.36379 12.1843
1 28.4929 8.57009 12.1843
1 28.4674 9.35655 11.3965
1 27.6735 8.57492 11.3939
1 29.2866 9.36379 12.1843
1 0.08031 8.57009 12.1843
1 0.0783156 9.36541 11.4048
1 29.2833 8.59149 11.4039
1 0.874011 9.36379 12.1843
1 1.66771 8.57009 12.1843
1 1.68414 9.36361 11.3921
1 0.890885 8.55881 11.3883
1 2.46141 9.36379 12.1843
1 3.25511 8.57009 12.1843
1 3.24704 9.38927 11.4119
1 2.47029 8.57316 11.4013
1 4.04881 9.36379 12.1843
1 4.84251 8.57009 12.1843
1 4.83959 9.37743 11.3764
1 4.04919 8.58027 11.395
1 5.63621 9.36379 12.1843
1 6.42991 8.57009 12.1843
1 6.43456 9.37083 11.4033
1 5.62205 8.55954 11.4129
1 7.22361 9.36379 12.1843
1 8.01732 8.57009 12.1843
1 8.02157 9.3717 11.402
1 7.22583 8.57095 11.3863
1 8.81102 9.36379 12.1843
1 9.60472 8.57009 12.1843
1 9.59031 9.36464 11.3757
1 8.81776 8.55718 11.3756
1 10.3984 9.36379 12.1843
1 11.1921 8.57009 12.1843
1 11.1834 9.34315 11.4351
1 10.3734 8.56257 11.372
1 11.9858 9.36379 12.1843
1 12.7795 8.57009 12.1843
1 12.7547 9.36335 11.4165
1 11.9862 8.56765 11.3956
1 13.5732 9.36379 12.1843
1 14.3669 8.57009 12.1843
1 14.302 9.38495 11.3507
1 13.5561 8.57895 11.379
1 15 7.77639 12.1843
1 15.7937 6.98268 12.1843
1 15.8357 7.77318 11.3954
1 15.0777 6.99605 11.3717
1 16.5874 7.77639 12.1843
1 17.3811 6.98268 12.1843
1 17.3944 7.78097 11.3848
1 16.6198 7.00568 11.3825
1 18.1748 7.77639 12.1843
1 18.9685 6.98268 12.1843
1 18.9972 7.79078 11.3951
1 18.2019 6.99189 11.3846
1 19.7622 7.77639 12.1843
1 20.5559 6.98268 12.1843
1 20.5553 7.80247 11.3952
1 19.8022 6.97249 11.3997
1 21.3496 7.77639 12.1843
1 22.1433 6.98268 12.1843
1 22.1492 7.7675 11.3559
1 21.3434 6.99251 11.4069
1 22.937 7.77639 12.1843
1 23.7307 6.98268 12.1843
1 23.7431 7.77837 11.3802
1 22.9483 6.99402 11.3883
1 24.5244 7.77639 12.1843
1 25.3181 6.98268 12.1843
1 25.3275 7.7671 11.3748
1 24.5486 6.97024 11.412
1 26.1118 7.77639 12.1843
1 26.9055 6.98268 12.1843
1 26.8804 7.77305 11.3955
1 26.091 6.96605 11.395
1 27.6992 7.77639 12.1843
1 28.4929 6.98268 12.1843
1 28.4886 7.78236 11.3679
1 27.6902 6.98166 11.3964
1 29.2866 7.77639 12.1843
1 0.08031 6.98268 12.1843
1 0.0950771 7.79463 11.3989
1 29.2923 6.98881 11.3798
1 0.874011 7.77639 12.1843
1 1.66771 6.98268 12.1843
1 1.67386 7.78202 11.4058
1 0.856306 6.98433 11.3798
1 2.46141 7.77639 12.1843
1 3.25511 6.98268 12.1843
1 3.26843 7.79588 11.4106
1 2.47756 6.99885 11.4119
1 4.04881 7.77639 12.1843
1 4.84251 6.98268 12.1843
1 4.83398 7.78287 11.4113
1 4.05012 7.00229 11.3922
1 5.63621 7.77639 12.1843
1 6.42991 6.98268 12.1843
1 6.43076 7.78152 11.4211
1 5.63122 7.02245 11.3886
1 7.22361 7.77639 12.1843
1 8.01732 6.98268 12.1843
1 7.99997 7.78843 11.3843
1 7.1947 6.99845 11.3887
1 8.81102 7.77639 12.1843
1 9.60472 6.98268 12.1843
1 9.60102 7.77758 11.3834
1 8.80127 6.98649 11.39
1 10.3984 7.77639 12.1843
1 11.1921 6.98268 12.1843
1 11.1692 7.77922 11.3621
1 10.3992 6.98696 11.3983
1 11.9858 7.77639 12.1843
1 12.7795 6.98268 12.1843
1 12.7672 7.80537 11.3998
1 11.9786 6.9796 11.4163
1 13.5732 7.77639 12.1843
1 14.3669 6.98268 12.1843
1 14.2978 7.79032 11.369
1 13.5565 6.9828 11.3725
1 15 6.18898 12.1843
1 15.7937 5.39528 12.1843
1 15.8345 6.20482 11.3955
1 15.0514 5.40565 11.3537
1 16.5874 6.18898 12.1843
1 17.3811 5.39528 12.1843
1 17.3965 6.22546 11.3862
1 16.617 5.3889 11.3655
1 18.1748 6.18898 12.1843
1 18.9685 5.39528 12.1843
1 18.9777 6.20749 11.3951
1 18.1665 5.39504 11.3867
1 19.7622 6.18898 12.1843
1 20.5559 5.39528 12.1843
1 20.5655 6.18811 11.3961
1 19.7488 5.41732 11.3756
1 21.3496 6.18898 12.1843
1 22.1433 5.39528 12.1843
1 22.1499 6.19749 11.397