12976
Atoms. Timestep: 0
1 0 7.10543e-15 136
1 0.793701 29.2063 136
1 0.793701 7.10543e-15 135.206
1 0 29.2063 135.206
1 1.5874 7.10543e-15 136
1 2.3811 29.2063 136
1 2.3811 7.10543e-15 135.206
1 1.5874 29.2063 135.206
1 3.1748 7.10543e-15 136
1 3.9685 29.2063 136
1 3.9685 7.10543e-15 135.206
1 3.1748 29.2063 135.206
1 4.7622 7.10543e-15 136
1 5.5559 29.2063 136
1 5.5559 7.10543e-15 135.206
1 4.7622 29.2063 135.206
1 6.3496 7.10543e-15 136
1 7.1433 29.2063 136
1 7.1433 7.10543e-15 135.206
1 6.3496 29.2063 135.206
1 7.93701 7.10543e-15 136
1 8.73071 29.2063 136
1 8.73071 7.10543e-15 135.206
1 7.93701 29.2063 135.206
1 9.52441 7.10543e-15 136
1 10.3181 29.2063 136
1 10.3181 7.10543e-15 135.206
1 9.52441 29.2063 135.206
1 11.1118 7.10543e-15 136
1 11.9055 29.2063 136
1 11.9055 7.10543e-15 135.206
1 11.1118 29.2063 135.206
1 12.6992 7.10543e-15 136
1 13.4929 29.2063 136
1 13.4929 7.10543e-15 135.206
1 12.6992 29.2063 135.206
1 14.2866 7.10543e-15 136
1 15.0803 29.2063 136
1 15.0803 7.10543e-15 135.206
1 14.2866 29.2063 135.206
1 15.874 7.10543e-15 136
1 16.6677 29.2063 136
1 16.6677 7.10543e-15 135.206
1 15.874 29.2063 135.206
1 17.4614 7.10543e-15 136
1 18.2551 29.2063 136
1 18.2551 7.10543e-15 135.206
1 17.4614 29.2063 135.206
1 19.0488 7.10543e-15 136
1 19.8425 29.2063 136
1 19.8425 7.10543e-15 135.206
1 19.0488 29.2063 135.206
1 20.6362 7.10543e-15 136
1 21.4299 29.2063 136
1 21.4299 7.10543e-15 135.206
1 20.6362 29.2063 135.206
1 22.2236 7.10543e-15 136
1 23.0173 29.2063 136
1 23.0173 7.10543e-15 135.206
1 22.2236 29.2063 135.206
1 23.811 7.10543e-15 136
1 24.6047 29.2063 136
1 24.6047 7.10543e-15 135.206
1 23.811 29.2063 135.206
1 25.3984 7.10543e-15 136
1 26.1921 29.2063 136
1 26.1921 7.10543e-15 135.206
1 25.3984 29.2063 135.206
1 26.9858 7.10543e-15 136
1 27.7795 29.2063 136
1 27.7795 7.10543e-15 135.206
1 26.9858 29.2063 135.206
1 28.5732 7.10543e-15 136
1 29.3669 29.2063 136
1 29.3669 7.10543e-15 135.206
1 28.5732 29.2063 135.206
1 0 28.4126 136
1 0.793701 27.6189 136
1 0.793701 28.4126 135.206
1 0 27.6189 135.206
1 1.5874 28.4126 136
1 2.3811 27.6189 136
1 2.3811 28.4126 135.206
1 1.5874 27.6189 135.206
1 3.1748 28.4126 136
1 3.9685 27.6189 136
1 3.9685 28.4126 135.206
1 3.1748 27.6189 135.206
1 4.7622 28.4126 136
1 5.5559 27.6189 136
1 5.5559 28.4126 135.206
1 4.7622 27.6189 135.206
1 6.3496 28.4126 136
1 7.1433 27.6189 136
1 7.1433 28.4126 135.206
1 6.3496 27.6189 135.206
1 7.93701 28.4126 136
1 8.73071 27.6189 136
1 8.73071 28.4126 135.206
1 7.93701 27.6189 135.206
1 9.52441 28.4126 136
1 10.3181 27.6189 136
1 10.3181 28.4126 135.206
1 9.52441 27.6189 135.206
1 11.1118 28.4126 136
1 11.9055 27.6189 136
1 11.9055 28.4126 135.206
1 11.1118 27.6189 135.206
1 12.6992 28.4126 136
1 13.4929 27.6189 136
1 13.4929 28.4126 135.206
1 12.6992 27.6189 135.206
1 14.2866 28.4126 136
1 15.0803 27.6189 136
1 15.0803 28.4126 135.206
1 14.2866 27.6189 135.206
1 15.874 28.4126 136
1 16.6677 27.6189 136
1 16.6677 28.4126 135.206
1 15.874 27.6189 135.206
1 17.4614 28.4126 136
1 18.2551 27.6189 136
1 18.2551 28.4126 135.206
1 17.4614 27.6189 135.206
1 19.0488 28.4126 136
1 19.8425 27.6189 136
1 19.8425 28.4126 135.206
1 19.0488 27.6189 135.206
1 20.6362 28.4126 136
1 21.4299 27.6189 136
1 21.4299 28.4126 135.206
1 20.6362 27.6189 135.206
1 22.2236 28.4126 136
1 23.0173 27.6189 136
1 23.0173 28.4126 135.206
1 22.2236 27.6189 135.206
1 23.811 28.4126 136
1 24.6047 27.6189 136
1 24.6047 28.4126 135.206
1 23.811 27.6189 135.206
1 25.3984 28.4126 136
1 26.1921 27.6189 136
1 26.1921 28.4126 135.206
1 25.3984 27.6189 135.206
1 26.9858 28.4126 136
1 27.7795 27.6189 136
1 27.7795 28.4126 135.206
1 26.9858 27.6189 135.206
1 28.5732 28.4126 136
1 29.3669 27.6189 136
1 29.3669 28.4126 135.206
1 28.5732 27.6189 135.206
1 0 26.8252 136
1 0.793701 26.0315 136
1 0.793701 26.8252 135.206
1 0 26.0315 135.206
1 1.5874 26.8252 136
1 2.3811 26.0315 136
1 2.3811 26.8252 135.206
1 1.5874 26.0315 135.206
1 3.1748 26.8252 136
1 3.9685 26.0315 136
1 3.9685 26.8252 135.206
1 3.1748 26.0315 135.206
1 4.7622 26.8252 136
1 5.5559 26.0315 136
1 5.5559 26.8252 135.206
1 4.7622 26.0315 135.206
1 6.3496 26.8252 136
1 7.1433 26.0315 136
1 7.1433 26.8252 135.206
1 6.3496 26.0315 135.206
1 7.93701 26.8252 136
1 8.73071 26.0315 136
1 8.73071 26.8252 135.206
1 7.93701 26.0315 135.206
1 9.52441 26.8252 136
1 10.3181 26.0315 136
1 10.3181 26.8252 135.206
1 9.52441 26.0315 135.206
1 11.1118 26.8252 136
1 11.9055 26.0315 136
1 11.9055 26.8252 135.206
1 11.1118 26.0315 135.206
1 12.6992 26.8252 136
1 13.4929 26.0315 136
1 13.4929 26.8252 135.206
1 12.6992 26.0315 135.206
1 14.2866 26.8252 136
1 15.0803 26.0315 136
1 15.0803 26.8252 135.206
1 14.2866 26.0315 135.206
1 15.874 26.8252 136
1 16.6677 26.0315 136
1 16.6677 26.8252 135.206
1 15.874 26.0315 135.206
1 17.4614 26.8252 136
1 18.2551 26.0315 136
1 18.2551 26.8252 135.206
1 17.4614 26.0315 135.206
1 19.0488 26.8252 136
1 19.8425 26.0315 136
1 19.8425 26.8252 135.206
1 19.0488 26.0315 135.206
1 20.6362 26.8252 136
1 21.4299 26.0315 136
1 21.4299 26.8252 135.206
1 20.6362 26.0315 135.206
1 22.2236 26.8252 136
1 23.0173 26.0315 136
1 23.0173 26.8252 135.206
1 22.2236 26.0315 135.206
1 23.811 26.8252 136
1 24.6047 26.0315 136
1 24.6047 26.8252 135.206
1 23.811 26.0315 135.206
1 25.3984 26.8252 136
1 26.1921 26.0315 136
1 26.1921 26.8252 135.206
1 25.3984 26.0315 135.206
1 26.9858 26.8252 136
1 27.7795 26.0315 136
1 27.7795 26.8252 135.206
1 26.9858 26.0315 135.206
1 28.5732 26.8252 136
1 29.3669 26.0315 136
1 29.3669 26.8252 135.206
1 28.5732 26.0315 135.206
1 0 25.2378 136
1 0.793701 24.4441 136
1 0.793701 25.2378 135.206
1 0 24.4441 135.206
1 1.5874 25.2378 136
1 2.3811 24.4441 136
1 2.3811 25.2378 135.206
1 1.5874 24.4441 135.206
1 3.1748 25.2378 136
1 3.9685 24.4441 136
1 3.9685 25.2378 135.206
1 3.1748 24.4441 135.206
1 4.7622 25.2378 136
1 5.5559 24.4441 136
1 5.5559 25.2378 135.206
1 4.7622 24.4441 135.206
1 6.3496 25.2378 136
1 7.1433 24.4441 136
1 7.1433 25.2378 135.206
1 6.3496 24.4441 135.206
1 7.93701 25.2378 136
1 8.73071 24.4441 136
1 8.73071 25.2378 135.206
1 7.93701 24.4441 135.206
1 9.52441 25.2378 136
1 10.3181 24.4441 136
1 10.3181 25.2378 135.206
1 9.52441 24.4441 135.206
1 11.1118 25.2378 136
1 11.9055 24.4441 136
1 11.9055 25.2378 135.206
1 11.1118 24.4441 135.206
1 12.6992 25.2378 136
1 13.4929 24.4441 136
1 13.4929 25.2378 135.206
1 12.6992 24.4441 135.206
1 14.2866 25.2378 136
1 15.0803 24.4441 136
1 15.0803 25.2378 135.206
1 14.2866 24.4441 135.206
1 15.874 25.2378 136
1 16.6677 24.4441 136
1 16.6677 25.2378 135.206
1 15.874 24.4441 135.206
1 17.4614 25.2378 136
1 18.2551 24.4441 136
1 18.2551 25.2378 135.206
1 17.4614 24.4441 135.206
1 19.0488 25.2378 136
1 19.8425 24.4441 136
1 19.8425 25.2378 135.206
1 19.0488 24.4441 135.206
1 20.6362 25.2378 136
1 21.4299 24.4441 136
1 21.4299 25.2378 135.206
1 20.6362 24.4441 135.206
1 22.2236 25.2378 136
1 23.0173 24.4441 136
1 23.0173 25.2378 135.206
1 22.2236 24.4441 135.206
1 23.811 25.2378 136
1 24.6047 24.4441 136
1 24.6047 25.2378 135.206
1 23.811 24.4441 135.206
1 25.3984 25.2378 136
1 26.1921 24.4441 136
1 26.1921 25.2378 135.206
1 25.3984 24.4441 135.206
1 26.9858 25.2378 136
1 27.7795 24.4441 136
1 27.7795 25.2378 135.206
1 26.9858 24.4441 135.206
1 28.5732 25.2378 136
1 29.3669 24.4441 136
1 29.3669 25.2378 135.206
1 28.5732 24.4441 135.206
1 0 23.6504 136
1 0.793701 22.8567 136
1 0.793701 23.6504 135.206
1 0 22.8567 135.206
1 1.5874 23.6504 136
1 2.3811 22.8567 136
1 2.3811 23.6504 135.206
1 1.5874 22.8567 135.206
1 3.1748 23.6504 136
1 3.9685 22.8567 136
1 3.9685 23.6504 135.206
1 3.1748 22.8567 135.206
1 4.7622 23.6504 136
1 5.5559 22.8567 136
1 5.5559 23.6504 135.206
1 4.7622 22.8567 135.206
1 6.3496 23.6504 136
1 7.1433 22.8567 136
1 7.1433 23.6504 135.206
1 6.3496 22.8567 135.206
1 7.93701 23.6504 136
1 8.73071 22.8567 136
1 8.73071 23.6504 135.206
1 7.93701 22.8567 135.206
1 9.52441 23.6504 136
1 10.3181 22.8567 136
1 10.3181 23.6504 135.206
1 9.52441 22.8567 135.206
1 11.1118 23.6504 136
1 11.9055 22.8567 136
1 11.9055 23.6504 135.206
1 11.1118 22.8567 135.206
1 12.6992 23.6504 136
1 13.4929 22.8567 136
1 13.4929 23.6504 135.206
1 12.6992 22.8567 135.206
1 14.2866 23.6504 136
1 15.0803 22.8567 136
1 15.0803 23.6504 135.206
1 14.2866 22.8567 135.206
1 15.874 23.6504 136
1 16.6677 22.8567 136
1 16.6677 23.6504 135.206
1 15.874 22.8567 135.206
1 17.4614 23.6504 136
1 18.2551 22.8567 136
1 18.2551 23.6504 135.206
1 17.4614 22.8567 135.206
1 19.0488 23.6504 136
1 19.8425 22.8567 136
1 19.8425 23.6504 135.206
1 19.0488 22.8567 135.206
1 20.6362 23.6504 136
1 21.4299 22.8567 136
1 21.4299 23.6504 135.206
1 20.6362 22.8567 135.206
1 22.2236 23.6504 136
1 23.0173 22.8567 136
1 23.0173 23.6504 135.206
1 22.2236 22.8567 135.206
1 23.811 23.6504 136
1 24.6047 22.8567 136
1 24.6047 23.6504 135.206
1 23.811 22.8567 135.206
1 25.3984 23.6504 136
1 26.1921 22.8567 136
1 26.1921 23.6504 135.206
1 25.3984 22.8567 135.206
1 26.9858 23.6504 136
1 27.7795 22.8567 136
1 27.7795 23.6504 135.206
1 26.9858 22.8567 135.206
1 28.5732 23.6504 136
1 29.3669 22.8567 136
1 29.3669 23.6504 135.206
1 28.5732 22.8567 135.206
1 0 22.063 136
1 0.793701 21.2693 136
1 0.793701 22.063 135.206
1 0 21.2693 135.206
1 1.5874 22.063 136
1 2.3811 21.2693 136
1 2.3811 22.063 135.206
1 1.5874 21.2693 135.206
1 3.1748 22.063 136
1 3.9685 21.2693 136
1 3.9685 22.063 135.206
1 3.1748 21.2693 135.206
1 4.7622 22.063 136
1 5.5559 21.2693 136
1 5.5559 22.063 135.206
1 4.7622 21.2693 135.206
1 6.3496 22.063 136
1 7.1433 21.2693 136
1 7.1433 22.063 135.206
1 6.3496 21.2693 135.206
1 7.93701 22.063 136
1 8.73071 21.2693 136
1 8.73071 22.063 135.206
1 7.93701 21.2693 135.206
1 9.52441 22.063 136
1 10.3181 21.2693 136
1 10.3181 22.063 135.206
1 9.52441 21.2693 135.206
1 11.1118 22.063 136
1 11.9055 21.2693 136
1 11.9055 22.063 135.206
1 11.1118 21.2693 135.206
1 12.6992 22.063 136
1 13.4929 21.2693 136
1 13.4929 22.063 135.206
1 12.6992 21.2693 135.206
1 14.2866 22.063 136
1 15.0803 21.2693 136
1 15.0803 22.063 135.206
1 14.2866 21.2693 135.206
1 15.874 22.063 136
1 16.6677 21.2693 136
1 16.6677 22.063 135.206
1 15.874 21.2693 135.206
1 17.4614 22.063 136
1 18.2551 21.2693 136
1 18.2551 22.063 135.206
1 17.4614 21.2693 135.206
1 19.0488 22.063 136
1 19.8425 21.2693 136
1 19.8425 22.063 135.206
1 19.0488 21.2693 135.206
1 20.6362 22.063 136
1 21.4299 21.2693 136
1 21.4299 22.063 135.206
1 20.6362 21.2693 135.206
1 22.2236 22.063 136
1 23.0173 21.2693 136
1 23.0173 22.063 135.206
1 22.2236 21.2693 135.206
1 23.811 22.063 136
1 24.6047 21.2693 136
1 24.6047 22.063 135.206
1 23.811 21.2693 135.206
1 25.3984 22.063 136
1 26.1921 21.2693 136
1 26.1921 22.063 135.206
1 25.3984 21.2693 135.206
1 26.9858 22.063 136
1 27.7795 21.2693 136
1 27.7795 22.063 135.206
1 26.9858 21.2693 135.206
1 28.5732 22.063 136
1 29.3669 21.2693 136
1 29.3669 22.063 135.206
1 28.5732 21.2693 135.206
1 0 20.4756 136
1 0.793701 19.6819 136
1 0.793701 20.4756 135.206
1 0 19.6819 135.206
1 1.5874 20.4756 136
1 2.3811 19.6819 136
1 2.3811 20.4756 135.206
1 1.5874 19.6819 135.206
1 3.1748 20.4756 136
1 3.9685 19.6819 136
1 3.9685 20.4756 135.206
1 3.1748 19.6819 135.206
1 4.7622 20.4756 136
1 5.5559 19.6819 136
1 5.5559 20.4756 135.206
1 4.7622 19.6819 135.206
1 6.3496 20.4756 136
1 7.1433 19.6819 136
1 7.1433 20.4756 135.206
1 6.3496 19.6819 135.206
1 7.93701 20.4756 136
1 8.73071 19.6819 136
1 8.73071 20.4756 135.206
1 7.93701 19.6819 135.206
1 9.52441 20.4756 136
1 10.3181 19.6819 136
1 10.3181 20.4756 135.206
1 9.52441 19.6819 135.206
1 11.1118 20.4756 136
1 11.9055 19.6819 136
1 11.9055 20.4756 135.206
1 11.1118 19.6819 135.206
1 12.6992 20.4756 136
1 13.4929 19.6819 136
1 13.4929 20.4756 135.206
1 12.6992 19.6819 135.206
1 14.2866 20.4756 136
1 15.0803 19.6819 136
1 15.0803 20.4756 135.206
1 14.2866 19.6819 135.206
1 15.874 20.4756 136
1 16.6677 19.6819 136
1 16.6677 20.4756 135.206
1 15.874 19.6819 135.206
1 17.4614 20.4756 136
1 18.2551 19.6819 136
1 18.2551 20.4756 135.206
1 17.4614 19.6819 135.206
1 19.0488 20.4756 136
1 19.8425 19.6819 136
1 19.8425 20.4756 135.206
1 19.0488 19.6819 135.206
1 20.6362 20.4756 136
1 21.4299 19.6819 136
1 21.4299 20.4756 135.206
1 20.6362 19.6819 135.206
1 22.2236 20.4756 136
1 23.0173 19.6819 136
1 23.0173 20.4756 135.206
1 22.2236 19.6819 135.206
1 23.811 20.4756 136
1 24.6047 19.6819 136
1 24.6047 20.4756 135.206
1 23.811 19.6819 135.206
1 25.3984 20.4756 136
1 26.1921 19.6819 136
1 26.1921 20.4756 135.206
1 25.3984 19.6819 135.206
1 26.9858 20.4756 136
1 27.7795 19.6819 136
1 27.7795 20.4756 135.206
1 26.9858 19.6819 135.206
1 28.5732 20.4756 136
1 29.3669 19.6819 136
1 29.3669 20.4756 135.206
1 28.5732 19.6819 135.206
1 0 18.8882 136
1 0.793701 18.0945 136
1 0.793701 18.8882 135.206
1 0 18.0945 135.206
1 1.5874 18.8882 136
1 2.3811 18.0945 136
1 2.3811 18.8882 135.206
1 1.5874 18.0945 135.206
1 3.1748 18.8882 136
1 3.9685 18.0945 136
1 3.9685 18.8882 135.206
1 3.1748 18.0945 135.206
1 4.7622 18.8882 136
1 5.5559 18.0945 136
1 5.5559 18.8882 135.206
1 4.7622 18.0945 135.206
1 6.3496 18.8882 136
1 7.1433 18.0945 136
1 7.1433 18.8882 135.206
1 6.3496 18.0945 135.206
1 7.93701 18.8882 136
1 8.73071 18.0945 136
1 8.73071 18.8882 135.206
1 7.93701 18.0945 135.206
1 9.52441 18.8882 136
1 10.3181 18.0945 136
1 10.3181 18.8882 135.206
1 9.52441 18.0945 135.206
1 11.1118 18.8882 136
1 11.9055 18.0945 136
1 11.9055 18.8882 135.206
1 11.1118 18.0945 135.206
1 12.6992 18.8882 136
1 13.4929 18.0945 136
1 13.4929 18.8882 135.206
1 12.6992 18.0945 135.206
1 14.2866 18.8882 136
1 15.0803 18.0945 136
1 15.0803 18.8882 135.206
1 14.2866 18.0945 135.206
1 15.874 18.8882 136
1 16.6677 18.0945 136
1 16.6677 18.8882 135.206
1 15.874 18.0945 135.206
1 17.4614 18.8882 136
1 18.2551 18.0945 136
1 18.2551 18.8882 135.206
1 17.4614 18.0945 135.206
1 19.0488 18.8882 136
1 19.8425 18.0945 136
1 19.8425 18.8882 135.206
1 19.0488 18.0945 135.206
1 20.6362 18.8882 136
1 21.4299 18.0945 136
1 21.4299 18.8882 135.206
1 20.6362 18.0945 135.206
1 22.2236 18.8882 136
1 23.0173 18.0945 136
1 23.0173 18.8882 135.206
1 22.2236 18.0945 135.206
1 23.811 18.8882 136
1 24.6047 18.0945 136
1 24.6047 18.8882 135.206
1 23.811 18.0945 135.206
1 25.3984 18.8882 136
1 26.1921 18.0945 136
1 26.1921 18.8882 135.206
1 25.3984 18.0945 135.206
1 26.9858 18.8882 136
1 27.7795 18.0945 136
1 27.7795 18.8882 135.206
1 26.9858 18.0945 135.206
1 28.5732 18.8882 136
1 29.3669 18.0945 136
1 29.3669 18.8882 135.206
1 28.5732 18.0945 135.206
1 0 17.3008 136
1 0.793701 16.5071 136
1 0.793701 17.3008 135.206
1 0 16.5071 135.206
1 1.5874 17.3008 136
1 2.3811 16.5071 136
1 2.3811 17.3008 135.206
1 1.5874 16.5071 135.206
1 3.1748 17.3008 136
1 3.9685 16.5071 136
1 3.9685 17.3008 135.206
1 3.1748 16.5071 135.206
1 4.7622 17.3008 136
1 5.5559 16.5071 136
1 5.5559 17.3008 135.206
1 4.7622 16.5071 135.206
1 6.3496 17.3008 136
1 7.1433 16.5071 136
1 7.1433 17.3008 135.206
1 6.3496 16.5071 135.206
1 7.93701 17.3008 136
1 8.73071 16.5071 136
1 8.73071 17.3008 135.206
1 7.93701 16.5071 135.206
1 9.52441 17.3008 136
1 10.3181 16.5071 136
1 10.3181 17.3008 135.206
1 9.52441 16.5071 135.206
1 11.1118 17.3008 136
1 11.9055 16.5071 136
1 11.9055 17.3008 135.206
1 11.1118 16.5071 135.206
1 12.6992 17.3008 136
1 13.4929 16.5071 136
1 13.4929 17.3008 135.206
1 12.6992 16.5071 135.206
1 14.2866 17.3008 136
1 15.0803 16.5071 136
1 15.0803 17.3008 135.206
1 14.2866 16.5071 135.206
1 15.874 17.3008 136
1 16.6677 16.5071 136
1 16.6677 17.3008 135.206
1 15.874 16.5071 135.206
1 17.4614 17.3008 136
1 18.2551 16.5071 136
1 18.2551 17.3008 135.206
1 17.4614 16.5071 135.206
1 19.0488 17.3008 136
1 19.8425 16.5071 136
1 19.8425 17.3008 135.206
1 19.0488 16.5071 135.206
1 20.6362 17.3008 136
1 21.4299 16.5071 136
1 21.4299 17.3008 135.206
1 20.6362 16.5071 135.206
1 22.2236 17.3008 136
1 23.0173 16.5071 136
1 23.0173 17.3008 135.206
1 22.2236 16.5071 135.206
1 23.811 17.3008 136
1 24.6047 16.5071 136
1 24.6047 17.3008 135.206
1 23.811 16.5071 135.206
1 25.3984 17.3008 136
1 26.1921 16.5071 136
1 26.1921 17.3008 135.206
1 25.3984 16.5071 135.206
1 26.9858 17.3008 136
1 27.7795 16.5071 136
1 27.7795 17.3008 135.206
1 26.9858 16.5071 135.206
1 28.5732 17.3008 136
1 29.3669 16.5071 136
1 29.3669 17.3008 135.206
1 28.5732 16.5071 135.206
1 0 15.7134 136
1 0.793701 14.9197 136
1 0.793701 15.7134 135.206
1 0 14.9197 135.206
1 1.5874 15.7134 136
1 2.3811 14.9197 136
1 2.3811 15.7134 135.206
1 1.5874 14.9197 135.206
1 3.1748 15.7134 136
1 3.9685 14.9197 136
1 3.9685 15.7134 135.206
1 3.1748 14.9197 135.206
1 4.7622 15.7134 136
1 5.5559 14.9197 136
1 5.5559 15.7134 135.206
1 4.7622 14.9197 135.206
1 6.3496 15.7134 136
1 7.1433 14.9197 136
1 7.1433 15.7134 135.206
1 6.3496 14.9197 135.206
1 7.93701 15.7134 136
1 8.73071 14.9197 136
1 8.73071 15.7134 135.206
1 7.93701 14.9197 135.206
1 9.52441 15.7134 136
1 10.3181 14.9197 136
1 10.3181 15.7134 135.206
1 9.52441 14.9197 135.206
1 11.1118 15.7134 136
1 11.9055 14.9197 136
1 11.9055 15.7134 135.206
1 11.1118 14.9197 135.206
1 12.6992 15.7134 136
1 13.4929 14.9197 136
1 13.4929 15.7134 135.206
1 12.6992 14.9197 135.206
1 14.2866 15.7134 136
1 15.0803 14.9197 136
1 15.0803 15.7134 135.206
1 14.2866 14.9197 135.206
1 15.874 15.7134 136
1 16.6677 14.9197 136
1 16.6677 15.7134 135.206
1 15.874 14.9197 135.206
1 17.4614 15.7134 136
1 18.2551 14.9197 136
1 18.2551 15.7134 135.206
1 17.4614 14.9197 135.206
1 19.0488 15.7134 136
1 19.8425 14.9197 136
1 19.8425 15.7134 135.206
1 19.0488 14.9197 135.206
1 20.6362 15.7134 136
1 21.4299 14.9197 136
1 21.4299 15.7134 135.206
1 20.6362 14.9197 135.206
1 22.2236 15.7134 136
1 23.0173 14.9197 136
1 23.0173 15.7134 135.206
1 22.2236 14.9197 135.206
1 23.811 15.7134 136
1 24.6047 14.9197 136
1 24.6047 15.7134 135.206
1 23.811 14.9197 135.206
1 25.3984 15.7134 136
1 26.1921 14.9197 136
1 26.1921 15.7134 135.206
1 25.3984 14.9197 135.206
1 26.9858 15.7134 136
1 27.7795 14.9197 136
1 27.7795 15.7134 135.206
1 26.9858 14.9197 135.206
1 28.5732 15.7134 136
1 29.3669 14.9197 136
1 29.3669 15.7134 135.206
1 28.5732 14.9197 135.206
1 0 14.126 136
1 0.793701 13.3323 136
1 0.793701 14.126 135.206
1 0 13.3323 135.206
1 1.5874 14.126 136
1 2.3811 13.3323 136
1 2.3811 14.126 135.206
1 1.5874 13.3323 135.206
1 3.1748 14.126 136
1 3.9685 13.3323 136
1 3.9685 14.126 135.206
1 3.1748 13.3323 135.206
1 4.7622 14.126 136
1 5.5559 13.3323 136
1 5.5559 14.126 135.206
1 4.7622 13.3323 135.206
1 6.3496 14.126 136
1 7.1433 13.3323 136
1 7.1433 14.126 135.206
1 6.3496 13.3323 135.206
1 7.93701 14.126 136
1 8.73071 13.3323 136
1 8.73071 14.126 135.206
1 7.93701 13.3323 135.206
1 9.52441 14.126 136
1 10.3181 13.3323 136
1 10.3181 14.126 135.206
1 9.52441 13.3323 135.206
1 11.1118 14.126 136
1 11.9055 13.3323 136
1 11.9055 14.126 135.206
1 11.1118 13.3323 135.206
1 12.6992 14.126 136
1 13.4929 13.3323 136
1 13.4929 14.126 135.206
1 12.6992 13.3323 135.206
1 14.2866 14.126 136
1 15.0803 13.3323 136
1 15.0803 14.126 135.206
1 14.2866 13.3323 135.206
1 15.874 14.126 136
1 16.6677 13.3323 136
1 16.6677 14.126 135.206
1 15.874 13.3323 135.206
1 17.4614 14.126 136
1 18.2551 13.3323 136
1 18.2551 14.126 135.206
1 17.4614 13.3323 135.206
1 19.0488 14.126 136
1 19.8425 13.3323 136
1 19.8425 14.126 135.206
1 19.0488 13.3323 135.206
1 20.6362 14.126 136
1 21.4299 13.3323 136
1 21.4299 14.126 135.206
1 20.6362 13.3323 135.206
1 22.2236 14.126 136
1 23.0173 13.3323 136
1 23.0173 14.126 135.206
1 22.2236 13.3323 135.206
1 23.811 14.126 136
1 24.6047 13.3323 136
1 24.6047 14.126 135.206
1 23.811 13.3323 135.206
1 25.3984 14.126 136
1 26.1921 13.3323 136
1 26.1921 14.126 135.206
1 25.3984 13.3323 135.206
1 26.9858 14.126 136
1 27.7795 13.3323 136
1 27.7795 14.126 135.206
1 26.9858 13.3323 135.206
1 28.5732 14.126 136
1 29.3669 13.3323 136
1 29.3669 14.126 135.206
1 28.5732 13.3323 135.206
1 0 12.5386 136
1 0.793701 11.7449 136
1 0.793701 12.5386 135.206
1 0 11.7449 135.206
1 1.5874 12.5386 136
1 2.3811 11.7449 136
1 2.3811 12.5386 135.206
1 1.5874 11.7449 135.206
1 3.1748 12.5386 136
1 3.9685 11.7449 136
1 3.9685 12.5386 135.206
1 3.1748 11.7449 135.206
1 4.7622 12.5386 136
1 5.5559 11.7449 136
1 5.5559 12.5386 135.206
1 4.7622 11.7449 135.206
1 6.3496 12.5386 136
1 7.1433 11.7449 136
1 7.1433 12.5386 135.206
1 6.3496 11.7449 135.206
1 7.93701 12.5386 136
1 8.73071 11.7449 136
1 8.73071 12.5386 135.206
1 7.93701 11.7449 135.206
1 9.52441 12.5386 136
1 10.3181 11.7449 136
1 10.3181 12.5386 135.206
1 9.52441 11.7449 135.206
1 11.1118 12.5386 136
1 11.9055 11.7449 136
1 11.9055 12.5386 135.206
1 11.1118 11.7449 135.206
1 12.6992 12.5386 136
1 13.4929 11.7449 136
1 13.4929 12.5386 135.206
1 12.6992 11.7449 135.206
1 14.2866 12.5386 136
1 15.0803 11.7449 136
1 15.0803 12.5386 135.206
1 14.2866 11.7449 135.206
1 15.874 12.5386 136
1 16.6677 11.7449 136
1 16.6677 12.5386 135.206
1 15.874 11.7449 135.206
1 17.4614 12.5386 136
1 18.2551 11.7449 136
1 18.2551 12.5386 135.206
1 17.4614 11.7449 135.206
1 19.0488 12.5386 136
1 19.8425 11.7449 136
1 19.8425 12.5386 135.206
1 19.0488 11.7449 135.206
1 20.6362 12.5386 136
1 21.4299 11.7449 136
1 21.4299 12.5386 135.206
1 20.6362 11.7449 135.206
1 22.2236 12.5386 136
1 23.0173 11.7449 136
1 23.0173 12.5386 135.206
1 22.2236 11.7449 135.206
1 23.811 12.5386 136
1 24.6047 11.7449 136
1 24.6047 12.5386 135.206
1 23.811 11.7449 135.206
1 25.3984 12.5386 136
1 26.1921 11.7449 136
1 26.1921 12.5386 135.206
1 25.3984 11.7449 135.206
1 26.9858 12.5386 136
1 27.7795 11.7449 136
1 27.7795 12.5386 135.206
1 26.9858 11.7449 135.206
1 28.5732 12.5386 136
1 29.3669 11.7449 136
1 29.3669 12.5386 135.206
1 28.5732 11.7449 135.206
1 0 10.9512 136
1 0.793701 10.1575 136
1 0.793701 10.9512 135.206
1 0 10.1575 135.206
1 1.5874 10.9512 136
1 2.3811 10.1575 136
1 2.3811 10.9512 135.206
1 1.5874 10.1575 135.206
1 3.1748 10.9512 136
1 3.9685 10.1575 136
1 3.9685 10.9512 135.206
1 3.1748 10.1575 135.206
1 4.7622 10.9512 136
1 5.5559 10.1575 136
1 5.5559 10.9512 135.206
1 4.7622 10.1575 135.206
1 6.3496 10.9512 136
1 7.1433 10.1575 136
1 7.1433 10.9512 135.206
1 6.3496 10.1575 135.206
1 7.93701 10.9512 136
1 8.73071 10.1575 136
1 8.73071 10.9512 135.206
1 7.93701 10.1575 135.206
1 9.52441 10.9512 136
1 10.3181 10.1575 136
1 10.3181 10.9512 135.206
1 9.52441 10.1575 135.206
1 11.1118 10.9512 136
1 11.9055 10.1575 136
1 11.9055 10.9512 135.206
1 11.1118 10.1575 135.206
1 12.6992 10.9512 136
1 13.4929 10.1575 136
1 13.4929 10.9512 135.206
1 12.6992 10.1575 135.206
1 14.2866 10.9512 136
1 15.0803 10.1575 136
1 15.0803 10.9512 135.206
1 14.2866 10.1575 135.206
1 15.874 10.9512 136
1 16.6677 10.1575 136
1 16.6677 10.9512 135.206
1 15.874 10.1575 135.206
1 17.4614 10.9512 136
1 18.2551 10.1575 136
1 18.2551 10.9512 135.206
1 17.4614 10.1575 135.206
1 19.0488 10.9512 136
1 19.8425 10.1575 136
1 19.8425 10.9512 135.206
1 19.0488 10.1575 135.206
1 20.6362 10.9512 136
1 21.4299 10.1575 136
1 21.4299 10.9512 135.206
1 20.6362 10.1575 135.206
1 22.2236 10.9512 136
1 23.0173 10.1575 136
1 23.0173 10.9512 135.206
1 22.2236 10.1575 135.206
1 23.811 10.9512 136
1 24.6047 10.1575 136
1 24.6047 10.9512 135.206
1 23.811 10.1575 135.206
1 25.3984 10.9512 136
1 26.1921 10.1575 136
1 26.1921 10.9512 135.206
1 25.3984 10.1575 135.206
1 26.9858 10.9512 136
1 27.7795 10.1575 136
1 27.7795 10.9512 135.206
1 26.9858 10.1575 135.206
1 28.5732 10.9512 136
1 29.3669 10.1575 136
1 29.3669 10.9512 135.206
1 28.5732 10.1575 135.206
1 0 9.36379 136
1 0.793701 8.57009 136
1 0.793701 9.36379 135.206
1 0 8.57009 135.206
1 1.5874 9.36379 136
1 2.3811 8.57009 136
1 2.3811 9.36379 135.206
1 1.5874 8.57009 135.206
1 3.1748 9.36379 136
1 3.9685 8.57009 136
1 3.9685 9.36379 135.206
1 3.1748 8.57009 135.206
1 4.7622 9.36379 136
1 5.5559 8.57009 136
1 5.5559 9.36379 135.206
1 4.7622 8.57009 135.206
1 6.3496 9.36379 136
1 7.1433 8.57009 136
1 7.1433 9.36379 135.206
1 6.3496 8.57009 135.206
1 7.93701 9.36379 136
1 8.73071 8.57009 136
1 8.73071 9.36379 135.206
1 7.93701 8.57009 135.206
1 9.52441 9.36379 136
1 10.3181 8.57009 136
1 10.3181 9.36379 135.206
1 9.52441 8.57009 135.206
1 11.1118 9.36379 136
1 11.9055 8.57009 136
1 11.9055 9.36379 135.206
1 11.1118 8.57009 135.206
1 12.6992 9.36379 136
1 13.4929 8.57009 136
1 13.4929 9.36379 135.206
1 12.6992 8.57009 135.206
1 14.2866 9.36379 136
1 15.0803 8.57009 136
1 15.0803 9.36379 135.206
1 14.2866 8.57009 135.206
1 15.874 9.36379 136
1 16.6677 8.57009 136
1 16.6677 9.36379 135.206
1 15.874 8.57009 135.206
1 17.4614 9.36379 136
1 18.2551 8.57009 136
1 18.2551 9.36379 135.206
1 17.4614 8.57009 135.206
1 19.0488 9.36379 136
1 19.8425 8.57009 136
1 19.8425 9.36379 135.206
1 19.0488 8.57009 135.206
1 20.6362 9.36379 136
1 21.4299 8.57009 136
1 21.4299 9.36379 135.206
1 20.6362 8.57009 135.206
1 22.2236 9.36379 136
1 23.0173 8.57009 136
1 23.0173 9.36379 135.206
1 22.2236 8.57009 135.206
1 23.811 9.36379 136
1 24.6047 8.57009 136
1 24.6047 9.36379 135.206
1 23.811 8.57009 135.206
1 25.3984 9.36379 136
1 26.1921 8.57009 136
1 26.1921 9.36379 135.206
1 25.3984 8.57009 135.206
1 26.9858 9.36379 136
1 27.7795 8.57009 136
1 27.7795 9.36379 135.206
1 26.9858 8.57009 135.206
1 28.5732 9.36379 136
1 29.3669 8.57009 136
1 29.3669 9.36379 135.206
1 28.5732 8.57009 135.206
1 0 7.77639 136
1 0.793701 6.98268 136
1 0.793701 7.77639 135.206
1 0 6.98268 135.206
1 1.5874 7.77639 136
1 2.3811 6.98268 136
1 2.3811 7.77639 135.206
1 1.5874 6.98268 135.206
1 3.1748 7.77639 136
1 3.9685 6.98268 136
1 3.9685 7.77639 135.206
1 3.1748 6.98268 135.206
1 4.7622 7.77639 136
1 5.5559 6.98268 136
1 5.5559 7.77639 135.206
1 4.7622 6.98268 135.206
1 6.3496 7.77639 136
1 7.1433 6.98268 136
1 7.1433 7.77639 135.206
1 6.3496 6.98268 135.206
1 7.93701 7.77639 136
1 8.73071 6.98268 136
1 8.73071 7.77639 135.206
1 7.93701 6.98268 135.206
1 9.52441 7.77639 136
1 10.3181 6.98268 136
1 10.3181 7.77639 135.206
1 9.52441 6.98268 135.206
1 11.1118 7.77639 136
1 11.9055 6.98268 136
1 11.9055 7.77639 135.206
1 11.1118 6.98268 135.206
1 12.6992 7.77639 136
1 13.4929 6.98268 136
1 13.4929 7.77639 135.206
1 12.6992 6.98268 135.206
1 14.2866 7.77639 136
1 15.0803 6.98268 136
1 15.0803 7.77639 135.206
1 14.2866 6.98268 135.206
1 15.874 7.77639 136
1 16.6677 6.98268 136
1 16.6677 7.77639 135.206
1 15.874 6.98268 135.206
1 17.4614 7.77639 136
1 18.2551 6.98268 136
1 18.2551 7.77639 135.206
1 17.4614 6.98268 135.206
1 19.0488 7.77639 136
1 19.8425 6.98268 136
1 19.8425 7.77639 135.206
1 19.0488 6.98268 135.206
1 20.6362 7.77639 136
1 21.4299 6.98268 136
1 21.4299 7.77639 135.206
1 20.6362 6.98268 135.206
1 22.2236 7.77639 136
1 23.0173 6.98268 136
1 23.0173 7.77639 135.206
1 22.2236 6.98268 135.206
1 23.811 7.77639 136
1 24.6047 6.98268 136
1 24.6047 7.77639 135.206
1 23.811 6.98268 135.206
1 25.3984 7.77639 136
1 26.1921 6.98268 136
1 26.1921 7.77639 135.206
1 25.3984 6.98268 135.206
1 26.9858 7.77639 136
1 27.7795 6.98268 136
1 27.7795 7.77639 135.206
1 26.9858 6.98268 135.206
1 28.5732 7.77639 136
1 29.3669 6.98268 136
1 29.3669 7.77639 135.206
1 28.5732 6.98268 135.206
1 0 6.18898 136
1 0.793701 5.39528 136
1 0.793701 6.18898 135.206
1 0 5.39528 135.206
1 1.5874 6.18898 136
1 2.3811 5.39528 136
1 2.3811 6.18898 135.206
1 1.5874 5.39528 135.206
1 3.1748 6.18898 136
1 3.9685 5.39528 136
1 3.9685 6.18898 135.206
1 3.1748 5.39528 135.206
1 4.7622 6.18898 136
1 5.5559 5.39528 136
1 5.5559 6.18898 135.206
1 4.7622 5.39528 135.206
1 6.3496 6.18898 136
1 7.1433 5.39528 136
1 7.1433 6.18898 135.206
1 6.3496 5.39528 135.206
1 7.93701 6.18898 136
1 8.73071 5.39528 136
1 8.73071 6.18898 135.206
1 7.93701 5.39528 135.206
1 9.52441 6.18898 136
1 10.3181 5.39528 136
1 10.3181 6.18898 135.206
1 9.52441 5.39528 135.206
1 11.1118 6.18898 136
1 11.9055 5.39528 136
1 11.9055 6.18898 135.206
1 11.1118 5.39528 135.206
1 12.6992 6.18898 136
1 13.4929 5.39528 136
1 13.4929 6.18898 135.206
1 12.6992 5.39528 135.206
1 14.2866 6.18898 136
1 15.0803 5.39528 136
1 15.0803 6.18898 135.206
1 14.2866 5.39528 135.206
1 15.874 6.18898 136
1 16.6677 5.39528 136
1 16.6677 6.18898 135.206
1 15.874 5.39528 135.206
1 17.4614 6.18898 136
1 18.2551 5.39528 136
1 18.2551 6.18898 135.206
1 17.4614 5.39528 135.206
1 19.0488 6.18898 136
1 19.8425 5.39528 136
1 19.8425 6.18898 135.206
1 19.0488 5.39528 135.206
1 20.6362 6.18898 136
1 21.4299 5.39528 136
1 21.4299 6.18898 135.206
1 20.6362 5.39528 135.206
1 22.2236 6.18898 136
1 23.0173 5.39528 136
1 23.0173 6.18898 135.206
1 22.2236 5.39528 135.206
1 23.811 6.18898 136
1 24.6047 5.39528 136
1 24.6047 6.18898 135.206
1 23.811 5.39528 135.206
1 25.3984 6.18898 136
1 26.1921 5.39528 136
1 26.1921 6.18898 135.206
1 25.3984 5.39528 135.206
1 26.9858 6.18898 136
1 27.7795 5.39528 136
1 27.7795 6.18898 135.206
1 26.9858 5.39528 135.206
1 28.5732 6.18898 136
1 29.3669 5.39528 136
1 29.3669 6.18898 135.206
1 28.5732 5.39528 135.206
1 0 4.60158 136
1 0.793701 3.80788 136
1 0.793701 4.60158 135.206
1 0 3.80788 135.206
1 1.5874 4.60158 136
1 2.3811 3.80788 136
1 2.3811 4.60158 135.206
1 1.5874 3.80788 135.206
1 3.1748 4.60158 136
1 3.9685 3.80788 136
1 3.9685 4.60158 135.206
1 3.1748 3.80788 135.206
1 4.7622 4.60158 136
1 5.5559 3.80788 136
1 5.5559 4.60158 135.206
1 4.7622 3.80788 135.206
1 6.3496 4.60158 136
1 7.1433 3.80788 136
1 7.1433 4.60158 135.206
1 6.3496 3.80788 135.206
1 7.93701 4.60158 136
1 8.73071 3.80788 136
1 8.73071 4.60158 135.206
1 7.93701 3.80788 135.206
1 9.52441 4.60158 136
1 10.3181 3.80788 136
1 10.3181 4.60158 135.206
1 9.52441 3.80788 135.206
1 11.1118 4.60158 136
1 11.9055 3.80788 136
1 11.9055 4.60158 135.206
1 11.1118 3.80788 135.206
1 12.6992 4.60158 136
1 13.4929 3.80788 136
1 13.4929 4.60158 135.206
1 12.6992 3.80788 135.206
1 14.2866 4.60158 136
1 15.0803 3.80788 136
1 15.0803 4.60158 135.206
1 14.2866 3.80788 135.206
1 15.874 4.60158 136
1 16.6677 3.80788 136
1 16.6677 4.60158 135.206
1 15.874 3.80788 135.206
1 17.4614 4.60158 136
1 18.2551 3.80788 136
1 18.2551 4.60158 135.206
1 17.4614 3.80788 135.206
1 19.0488 4.60158 136
1 19.8425 3.80788 136
1 19.8425 4.60158 135.206