LAMMPS (7 Aug 2019)
#--- Brush Variables---#
variable      f      equal  2
variable      M      equal  $(v_f * 20)                 # The number of polymer chains on each brush
variable      M      equal  40                 
variable      N      string 30                 # The number of beads per chain
variable      xhi    equal  $(sqrt(v_f) * 20)                 # The width of the polymer Brush
variable      xhi    equal  28.284271247461902021                 
variable      yhi    equal  $(sqrt(v_f) * 20)                 # The length of the polymer Brush
variable      yhi    equal  28.284271247461902021                 
variable      wthick equal  3                  # The thickness of the walls wthick=1,2,3,4 gives 2,3,4,6 layers respectively

#--- Simulation Variables ---#
variable       Temp      index 1        #0.8 1 1.68                 #[Grest96]
variable       Tstep     equal 0.005                       # Timestep in Tau (default = 0.005)
variable       Nequil    equal 300000                       # Number of timesteps to equilibrate
variable       Ncomp     equal 700000                     # Number of timesteps to compress - until no more occilation of walls
variable       Nshear    equal 4000000      #2000000                      # Number of timesteps to shear - use approx 4ns for 10m/s
variable       Nthermo   equal 1000                        # Number of timesteps between thermo data prints
variable       Ndump_e   equal 10000
variable       Ndump_c   equal 10000                      # Number of timesteps per dump file (compression)
variable       Ndump_s   equal 10000                       # Number of timesteps per dump file (shear)
variable       Wall_v    index 0.5   #0.001 0.01 0.1 0.2 0.4 0.6 0.8 1 1.2 1.4 1.6 1.8 2   # 0.005 0.05 0.1 0.5 1.5 0.001 0.003 0.2 0.0002 2                      # Wall velocity (A/fs) - equal to 10 m/s
variable       Pcomp     index 1 0.5 2 0.05 4 8

include        MDPBB.in
# This is an input script that creates a mono disperse polymer brush bilayer
# A coarse grained bead-spring model is used for the polymers which are end
# grafted to the surfaces of 2 opposing FCC walls at random sites.

#--- Initialization ---#

dimension     3
boundary      p p f
units         lj
atom_style    bond


#--- Moved to main.in ---#
#variable      M      equal  50                # The number of polymer chains on each brush
#variable      N      string 80                # The number of beads per chain
#variable      xhi    equal  15                # The width of the polymer Brush
#variable      yhi    equal  20                # The length of the polymer Brush
#variable      wthick equal  3                 # The thickness of the walls wthick=1,2,3,4 gives 2,3,4,6 layers respectively

variable      zhi    equal  $(1.1 * 2 * v_N + (2 * v_wthick))  # The initial height of the simulation box the value is such that no overlaps occur
variable      zhi    equal  72  
variable      z0     equal  $((v_zhi)/4 - (v_N)/30)          # This is the location at which to place the CoM of the molecule
variable      z0     equal  17          

print "The number of grafted chains = $(v_M)"
The number of grafted chains = 40
print "The number of beads per chain = $(v_N)"
The number of beads per chain = 30

variable      check  equal count(all)         # The number of atoms in the system
variable      ntwall equal count(twall)       # The number of atoms in the top wall
variable      nbwall equal count(bwall)       # The number of atoms in the bottom wall
variable      s equal 234897  #45335              # Seed for the RNG

print "zhi = ${zhi}"
zhi = 72

#--- Create the simulation box ---#

region        sbox block 0 ${xhi} 0 ${yhi} 0 ${zhi}
region        sbox block 0 28.2842712474619 0 ${yhi} 0 ${zhi}
region        sbox block 0 28.2842712474619 0 28.2842712474619 0 ${zhi}
region        sbox block 0 28.2842712474619 0 28.2842712474619 0 72
create_box    4 sbox bond/types 3 extra/bond/per/atom 12 extra/special/per/atom 2
Created orthogonal box = (0 0 0) to (28.2843 28.2843 72)
  2 by 2 by 8 MPI processor grid

mass          1 2.0                   # Wall atoms that are not grafted
mass          2 1.0                   # Grafted bead
mass          3 1.0                   # The rest of the beads on the chain
mass          4 2.0                   # Wall atoms that the chains are grafted to

bond_style    hybrid fene harmonic    # Finitely extensible linearly elastic bond between neighbouring beads
#bond_coeff    1 fene 30.0 1.5 0.0 0.0      # Values obtained from literature [Grest, Galushcko]
bond_coeff    1 fene 30.0 30.0 0.0 0.0
bond_coeff    2 fene 30.0 30.0 0.0 0.0       # This is the grafting bond between the polymer and the wall atom
special_bonds fene                    #
  0 = max # of 1-2 neighbors
  5 = max # of special neighbors
  special bonds CPU = 0.00259113 secs
pair_style	  lj/cut 1.122462         # LJ potential with rc=2^1/6
#pair_coeff	  * * 1.0 1.0             # LJ potential acts between all atoms
pair_coeff    1 1 0.0 0.0
pair_coeff    1 2 1.0 1.0
pair_coeff    1 3 1.0 1.0
pair_coeff    2 2 1.0 1.0
pair_coeff    2 3 1.0 1.0
pair_coeff    2 4 1.0 1.0
pair_coeff    3 3 1.0 1.0
pair_coeff    3 4 1.0 1.0
pair_coeff    4 4 0.0 0.0
neighbor      10 bin                  #
neigh_modify  one 4000

#--- Create and read the molecule file ---#
python        BSMolf input 1 $N format i file BSMolf.py
python        BSMolf input 1 30 format i file BSMolf.py
python        BSMolf invoke    # Call the python function with number of beads to write the mol file
molecule      bs     bsmol.txt     # Read the Mol file to define the polymer chain
Read molecule bs:
  30 atoms with max type 2
  29 bonds with max type 1
  0 angles with max type 0
  0 dihedrals with max type 0
  0 impropers with max type 0

#--- Define the FCC wall region ---#
region        wall  block 0 ${xhi} 0 ${yhi} 0 ${wthick}
region        wall  block 0 28.2842712474619 0 ${yhi} 0 ${wthick}
region        wall  block 0 28.2842712474619 0 28.2842712474619 0 ${wthick}
region        wall  block 0 28.2842712474619 0 28.2842712474619 0 3
lattice       fcc 1
Lattice spacing in x,y,z = 1.5874 1.5874 1.5874

#--- Create the Top Brush  (At the bottom then rotate 180 degrees to top) ---#

create_atoms  1 region wall
Created 2592 atoms
  create_atoms CPU = 0.0018959 secs
group         twall  region wall
2592 atoms in group twall
#group         tsurf  region wsurf

# A loop to insert the Chains into the sim box
variable      i loop $M                                   # Index to insert N total number of chains
variable      i loop 40                                   
label         loop                                        # Start of loop
variable      randni equal round(random(1,${ntwall},$s))  # Pick a random "top" wall atom
variable      randni equal round(random(1,2592,$s))  
variable      randni equal round(random(1,2592,234897))  
variable      randatomi equal ${randni}                   # This is to obtain an integer number for atom-id
variable      randatomi equal 1628                   
variable      randzi equal z[${randatomi}]                # Determine the z coordinate of the chosen atom
variable      randzi equal z[1628]                
# if the chosen atom is not a surface atom then restart the loop
if            "${randzi} < $(v_wthick - 0.7)" then "jump MDPBB.in loop"
set           atom ${randatomi} type 4                    # Set this grafted wall atom as a new type
set           atom 1628 type 4                    
  1 settings made for type
group         twg id ${randatomi}                         # Add this atom to a top-wall-grafted group
group         twg id 1628                         
1 atoms in group twg
variable      twgcount equal count(twg)
print         "twg contains ${twgcount}"
twg contains 1
print         "i = $(v_i)"                                # The index i should always be equal to the number of atom in twg
i = 1
variable      x0 equal x[${randatomi}]                    # Determine its x-coord
variable      x0 equal x[1628]                    
variable      y0 equal y[${randatomi}]                    # Determine its y-coord
variable      y0 equal y[1628]                    
variable      check0 equal ${check}                       # Count the number of atoms in the simulation
variable      check0 equal 2592                       
variable      b equal ${check}+1                          # The grafted bead id will be one higher after being inserted
variable      b equal 2592+1                          
if            "${twgcount} != $(v_i)" then "jump MDPBB.in loop"
# Otherwise insert the chain directly above the chosen wall atom pointing perpendicular to the wall
create_atoms  1 single ${x0} ${y0} ${z0} mol bs 24987 units box remap yes rotate 0 0 0 1
create_atoms  1 single 15.874010519682 ${y0} ${z0} mol bs 24987 units box remap yes rotate 0 0 0 1
create_atoms  1 single 15.874010519682 0.7937005259841 ${z0} mol bs 24987 units box remap yes rotate 0 0 0 1
create_atoms  1 single 15.874010519682 0.7937005259841 17 mol bs 24987 units box remap yes rotate 0 0 0 1
Created 30 atoms
  create_atoms CPU = 0.00230312 secs
variable      check1 equal ${check}               # Count the new total number of atoms
variable      check1 equal 2622               
# Check that the molecule has indeed been inserted (This check is no longer an issue).
if            "${check1} != ${check0}" then "create_bonds  single/bond 2 ${randatomi} $b" "next i"
create_bonds  single/bond 2 ${randatomi} $b
create_bonds  single/bond 2 1628 $b
create_bonds  single/bond 2 1628 2593
  2 = max # of 1-2 neighbors
  5 = max # of special neighbors
  special bonds CPU = 0.00090003 secs
next i
jump MDPBB.in loop    # End of the loop
variable      randni equal round(random(1,${ntwall},$s))  # Pick a random "top" wall atom
variable      randni equal round(random(1,2592,$s))  
variable      randni equal round(random(1,2592,234897))  
variable      randatomi equal ${randni}                   # This is to obtain an integer number for atom-id
variable      randatomi equal 408                   
variable      randzi equal z[${randatomi}]                # Determine the z coordinate of the chosen atom
variable      randzi equal z[408]                
# if the chosen atom is not a surface atom then restart the loop
if            "${randzi} < $(v_wthick - 0.7)" then "jump MDPBB.in loop"
set           atom ${randatomi} type 4                    # Set this grafted wall atom as a new type
set           atom 408 type 4                    
  1 settings made for type
group         twg id ${randatomi}                         # Add this atom to a top-wall-grafted group
group         twg id 408                         
2 atoms in group twg
variable      twgcount equal count(twg)
print         "twg contains ${twgcount}"
twg contains 2
print         "i = $(v_i)"                                # The index i should always be equal to the number of atom in twg
i = 2
variable      x0 equal x[${randatomi}]                    # Determine its x-coord
variable      x0 equal x[408]                    
variable      y0 equal y[${randatomi}]                    # Determine its y-coord
variable      y0 equal y[408]                    
variable      check0 equal ${check}                       # Count the number of atoms in the simulation
variable      check0 equal 2622                       
variable      b equal ${check}+1                          # The grafted bead id will be one higher after being inserted
variable      b equal 2622+1                          
if            "${twgcount} != $(v_i)" then "jump MDPBB.in loop"
# Otherwise insert the chain directly above the chosen wall atom pointing perpendicular to the wall
create_atoms  1 single ${x0} ${y0} ${z0} mol bs 24987 units box remap yes rotate 0 0 0 1
create_atoms  1 single 3.1748021039364 ${y0} ${z0} mol bs 24987 units box remap yes rotate 0 0 0 1
create_atoms  1 single 3.1748021039364 3.9685026299205 ${z0} mol bs 24987 units box remap yes rotate 0 0 0 1
create_atoms  1 single 3.1748021039364 3.9685026299205 17 mol bs 24987 units box remap yes rotate 0 0 0 1
Created 30 atoms
  create_atoms CPU = 0.00212598 secs
variable      check1 equal ${check}               # Count the new total number of atoms
variable      check1 equal 2652               
# Check that the molecule has indeed been inserted (This check is no longer an issue).
if            "${check1} != ${check0}" then "create_bonds  single/bond 2 ${randatomi} $b" "next i"
create_bonds  single/bond 2 ${randatomi} $b
create_bonds  single/bond 2 408 $b
create_bonds  single/bond 2 408 2623
  2 = max # of 1-2 neighbors
  5 = max # of special neighbors
  special bonds CPU = 0.000640154 secs
next i
jump MDPBB.in loop    # End of the loop
variable      randni equal round(random(1,${ntwall},$s))  # Pick a random "top" wall atom
variable      randni equal round(random(1,2592,$s))  
variable      randni equal round(random(1,2592,234897))  
variable      randatomi equal ${randni}                   # This is to obtain an integer number for atom-id
variable      randatomi equal 1958                   
variable      randzi equal z[${randatomi}]                # Determine the z coordinate of the chosen atom
variable      randzi equal z[1958]                
# if the chosen atom is not a surface atom then restart the loop
if            "${randzi} < $(v_wthick - 0.7)" then "jump MDPBB.in loop"
jump MDPBB.in loop
variable      randni equal round(random(1,${ntwall},$s))  # Pick a random "top" wall atom
variable      randni equal round(random(1,2592,$s))  
variable      randni equal round(random(1,2592,234897))  
variable      randatomi equal ${randni}                   # This is to obtain an integer number for atom-id
variable      randatomi equal 1976                   
variable      randzi equal z[${randatomi}]                # Determine the z coordinate of the chosen atom
variable      randzi equal z[1976]                
# if the chosen atom is not a surface atom then restart the loop
if            "${randzi} < $(v_wthick - 0.7)" then "jump MDPBB.in loop"
jump MDPBB.in loop
variable      randni equal round(random(1,${ntwall},$s))  # Pick a random "top" wall atom
variable      randni equal round(random(1,2592,$s))  
variable      randni equal round(random(1,2592,234897))  
variable      randatomi equal ${randni}                   # This is to obtain an integer number for atom-id
variable      randatomi equal 1883                   
variable      randzi equal z[${randatomi}]                # Determine the z coordinate of the chosen atom
variable      randzi equal z[1883]                
# if the chosen atom is not a surface atom then restart the loop
if            "${randzi} < $(v_wthick - 0.7)" then "jump MDPBB.in loop"
set           atom ${randatomi} type 4                    # Set this grafted wall atom as a new type
set           atom 1883 type 4                    
  1 settings made for type
group         twg id ${randatomi}                         # Add this atom to a top-wall-grafted group
group         twg id 1883                         
3 atoms in group twg
variable      twgcount equal count(twg)
print         "twg contains ${twgcount}"
twg contains 3
print         "i = $(v_i)"                                # The index i should always be equal to the number of atom in twg
i = 3
variable      x0 equal x[${randatomi}]                    # Determine its x-coord
variable      x0 equal x[1883]                    
variable      y0 equal y[${randatomi}]                    # Determine its y-coord
variable      y0 equal y[1883]                    
variable      check0 equal ${check}                       # Count the number of atoms in the simulation
variable      check0 equal 2652                       
variable      b equal ${check}+1                          # The grafted bead id will be one higher after being inserted
variable      b equal 2652+1                          
if            "${twgcount} != $(v_i)" then "jump MDPBB.in loop"
# Otherwise insert the chain directly above the chosen wall atom pointing perpendicular to the wall
create_atoms  1 single ${x0} ${y0} ${z0} mol bs 24987 units box remap yes rotate 0 0 0 1
create_atoms  1 single 18.2551120976343 ${y0} ${z0} mol bs 24987 units box remap yes rotate 0 0 0 1
create_atoms  1 single 18.2551120976343 11.1118073637774 ${z0} mol bs 24987 units box remap yes rotate 0 0 0 1
create_atoms  1 single 18.2551120976343 11.1118073637774 17 mol bs 24987 units box remap yes rotate 0 0 0 1
Created 30 atoms
  create_atoms CPU = 0.000277042 secs
variable      check1 equal ${check}               # Count the new total number of atoms
variable      check1 equal 2682               
# Check that the molecule has indeed been inserted (This check is no longer an issue).
if            "${check1} != ${check0}" then "create_bonds  single/bond 2 ${randatomi} $b" "next i"
create_bonds  single/bond 2 ${randatomi} $b
create_bonds  single/bond 2 1883 $b
create_bonds  single/bond 2 1883 2653
  2 = max # of 1-2 neighbors
  5 = max # of special neighbors
  special bonds CPU = 0.000617027 secs
next i
jump MDPBB.in loop    # End of the loop
variable      randni equal round(random(1,${ntwall},$s))  # Pick a random "top" wall atom
variable      randni equal round(random(1,2592,$s))  
variable      randni equal round(random(1,2592,234897))  
variable      randatomi equal ${randni}                   # This is to obtain an integer number for atom-id
variable      randatomi equal 2554                   
variable      randzi equal z[${randatomi}]                # Determine the z coordinate of the chosen atom
variable      randzi equal z[2554]                
# if the chosen atom is not a surface atom then restart the loop
if            "${randzi} < $(v_wthick - 0.7)" then "jump MDPBB.in loop"
jump MDPBB.in loop
variable      randni equal round(random(1,${ntwall},$s))  # Pick a random "top" wall atom
variable      randni equal round(random(1,2592,$s))  
variable      randni equal round(random(1,2592,234897))  
variable      randatomi equal ${randni}                   # This is to obtain an integer number for atom-id
variable      randatomi equal 1232                   
variable      randzi equal z[${randatomi}]                # Determine the z coordinate of the chosen atom
variable      randzi equal z[1232]                
# if the chosen atom is not a surface atom then restart the loop
if            "${randzi} < $(v_wthick - 0.7)" then "jump MDPBB.in loop"
set           atom ${randatomi} type 4                    # Set this grafted wall atom as a new type
set           atom 1232 type 4                    
  1 settings made for type
group         twg id ${randatomi}                         # Add this atom to a top-wall-grafted group
group         twg id 1232                         
4 atoms in group twg
variable      twgcount equal count(twg)
print         "twg contains ${twgcount}"
twg contains 4
print         "i = $(v_i)"                                # The index i should always be equal to the number of atom in twg
i = 4
variable      x0 equal x[${randatomi}]                    # Determine its x-coord
variable      x0 equal x[1232]                    
variable      y0 equal y[${randatomi}]                    # Determine its y-coord
variable      y0 equal y[1232]                    
variable      check0 equal ${check}                       # Count the number of atoms in the simulation
variable      check0 equal 2682                       
variable      b equal ${check}+1                          # The grafted bead id will be one higher after being inserted
variable      b equal 2682+1                          
if            "${twgcount} != $(v_i)" then "jump MDPBB.in loop"
# Otherwise insert the chain directly above the chosen wall atom pointing perpendicular to the wall
create_atoms  1 single ${x0} ${y0} ${z0} mol bs 24987 units box remap yes rotate 0 0 0 1
create_atoms  1 single 1.5874010519682 ${y0} ${z0} mol bs 24987 units box remap yes rotate 0 0 0 1
create_atoms  1 single 1.5874010519682 26.1921173574753 ${z0} mol bs 24987 units box remap yes rotate 0 0 0 1
create_atoms  1 single 1.5874010519682 26.1921173574753 17 mol bs 24987 units box remap yes rotate 0 0 0 1
Created 30 atoms
  create_atoms CPU = 0.00208497 secs
variable      check1 equal ${check}               # Count the new total number of atoms
variable      check1 equal 2712               
# Check that the molecule has indeed been inserted (This check is no longer an issue).
if            "${check1} != ${check0}" then "create_bonds  single/bond 2 ${randatomi} $b" "next i"
create_bonds  single/bond 2 ${randatomi} $b
create_bonds  single/bond 2 1232 $b
create_bonds  single/bond 2 1232 2683
  2 = max # of 1-2 neighbors
  5 = max # of special neighbors
  special bonds CPU = 0.000628948 secs
next i
jump MDPBB.in loop    # End of the loop
variable      randni equal round(random(1,${ntwall},$s))  # Pick a random "top" wall atom
variable      randni equal round(random(1,2592,$s))  
variable      randni equal round(random(1,2592,234897))  
variable      randatomi equal ${randni}                   # This is to obtain an integer number for atom-id
variable      randatomi equal 869                   
variable      randzi equal z[${randatomi}]                # Determine the z coordinate of the chosen atom
variable      randzi equal z[869]                
# if the chosen atom is not a surface atom then restart the loop
if            "${randzi} < $(v_wthick - 0.7)" then "jump MDPBB.in loop"
jump MDPBB.in loop
variable      randni equal round(random(1,${ntwall},$s))  # Pick a random "top" wall atom
variable      randni equal round(random(1,2592,$s))  
variable      randni equal round(random(1,2592,234897))  
variable      randatomi equal ${randni}                   # This is to obtain an integer number for atom-id
variable      randatomi equal 1122                   
variable      randzi equal z[${randatomi}]                # Determine the z coordinate of the chosen atom
variable      randzi equal z[1122]                
# if the chosen atom is not a surface atom then restart the loop
if            "${randzi} < $(v_wthick - 0.7)" then "jump MDPBB.in loop"
jump MDPBB.in loop
variable      randni equal round(random(1,${ntwall},$s))  # Pick a random "top" wall atom
variable      randni equal round(random(1,2592,$s))  
variable      randni equal round(random(1,2592,234897))  
variable      randatomi equal ${randni}                   # This is to obtain an integer number for atom-id
variable      randatomi equal 1876                   
variable      randzi equal z[${randatomi}]                # Determine the z coordinate of the chosen atom
variable      randzi equal z[1876]                
# if the chosen atom is not a surface atom then restart the loop
if            "${randzi} < $(v_wthick - 0.7)" then "jump MDPBB.in loop"
set           atom ${randatomi} type 4                    # Set this grafted wall atom as a new type
set           atom 1876 type 4                    
  1 settings made for type
group         twg id ${randatomi}                         # Add this atom to a top-wall-grafted group
group         twg id 1876                         
5 atoms in group twg
variable      twgcount equal count(twg)
print         "twg contains ${twgcount}"
twg contains 5
print         "i = $(v_i)"                                # The index i should always be equal to the number of atom in twg
i = 5
variable      x0 equal x[${randatomi}]                    # Determine its x-coord
variable      x0 equal x[1876]                    
variable      y0 equal y[${randatomi}]                    # Determine its y-coord
variable      y0 equal y[1876]                    
variable      check0 equal ${check}                       # Count the number of atoms in the simulation
variable      check0 equal 2712                       
variable      b equal ${check}+1                          # The grafted bead id will be one higher after being inserted
variable      b equal 2712+1                          
if            "${twgcount} != $(v_i)" then "jump MDPBB.in loop"
# Otherwise insert the chain directly above the chosen wall atom pointing perpendicular to the wall
create_atoms  1 single ${x0} ${y0} ${z0} mol bs 24987 units box remap yes rotate 0 0 0 1
create_atoms  1 single 14.2866094677138 ${y0} ${z0} mol bs 24987 units box remap yes rotate 0 0 0 1
create_atoms  1 single 14.2866094677138 11.9055078897615 ${z0} mol bs 24987 units box remap yes rotate 0 0 0 1
create_atoms  1 single 14.2866094677138 11.9055078897615 17 mol bs 24987 units box remap yes rotate 0 0 0 1
Created 30 atoms
  create_atoms CPU = 0.000266075 secs
variable      check1 equal ${check}               # Count the new total number of atoms
variable      check1 equal 2742               
# Check that the molecule has indeed been inserted (This check is no longer an issue).
if            "${check1} != ${check0}" then "create_bonds  single/bond 2 ${randatomi} $b" "next i"
create_bonds  single/bond 2 ${randatomi} $b
create_bonds  single/bond 2 1876 $b
create_bonds  single/bond 2 1876 2713
  2 = max # of 1-2 neighbors
  5 = max # of special neighbors
  special bonds CPU = 0.000628948 secs
next i
jump MDPBB.in loop    # End of the loop
variable      randni equal round(random(1,${ntwall},$s))  # Pick a random "top" wall atom
variable      randni equal round(random(1,2592,$s))  
variable      randni equal round(random(1,2592,234897))  
variable      randatomi equal ${randni}                   # This is to obtain an integer number for atom-id
variable      randatomi equal 2321                   
variable      randzi equal z[${randatomi}]                # Determine the z coordinate of the chosen atom
variable      randzi equal z[2321]                
# if the chosen atom is not a surface atom then restart the loop
if            "${randzi} < $(v_wthick - 0.7)" then "jump MDPBB.in loop"
jump MDPBB.in loop
variable      randni equal round(random(1,${ntwall},$s))  # Pick a random "top" wall atom
variable      randni equal round(random(1,2592,$s))  
variable      randni equal round(random(1,2592,234897))  
variable      randatomi equal ${randni}                   # This is to obtain an integer number for atom-id
variable      randatomi equal 19                   
variable      randzi equal z[${randatomi}]                # Determine the z coordinate of the chosen atom
variable      randzi equal z[19]                
# if the chosen atom is not a surface atom then restart the loop
if            "${randzi} < $(v_wthick - 0.7)" then "jump MDPBB.in loop"
jump MDPBB.in loop
variable      randni equal round(random(1,${ntwall},$s))  # Pick a random "top" wall atom
variable      randni equal round(random(1,2592,$s))  
variable      randni equal round(random(1,2592,234897))  
variable      randatomi equal ${randni}                   # This is to obtain an integer number for atom-id
variable      randatomi equal 494                   
variable      randzi equal z[${randatomi}]                # Determine the z coordinate of the chosen atom
variable      randzi equal z[494]                
# if the chosen atom is not a surface atom then restart the loop
if            "${randzi} < $(v_wthick - 0.7)" then "jump MDPBB.in loop"
jump MDPBB.in loop
variable      randni equal round(random(1,${ntwall},$s))  # Pick a random "top" wall atom
variable      randni equal round(random(1,2592,$s))  
variable      randni equal round(random(1,2592,234897))  
variable      randatomi equal ${randni}                   # This is to obtain an integer number for atom-id
variable      randatomi equal 847                   
variable      randzi equal z[${randatomi}]                # Determine the z coordinate of the chosen atom
variable      randzi equal z[847]                
# if the chosen atom is not a surface atom then restart the loop
if            "${randzi} < $(v_wthick - 0.7)" then "jump MDPBB.in loop"
jump MDPBB.in loop
variable      randni equal round(random(1,${ntwall},$s))  # Pick a random "top" wall atom
variable      randni equal round(random(1,2592,$s))  
variable      randni equal round(random(1,2592,234897))  
variable      randatomi equal ${randni}                   # This is to obtain an integer number for atom-id
variable      randatomi equal 2100                   
variable      randzi equal z[${randatomi}]                # Determine the z coordinate of the chosen atom
variable      randzi equal z[2100]                
# if the chosen atom is not a surface atom then restart the loop
if            "${randzi} < $(v_wthick - 0.7)" then "jump MDPBB.in loop"
jump MDPBB.in loop
variable      randni equal round(random(1,${ntwall},$s))  # Pick a random "top" wall atom
variable      randni equal round(random(1,2592,$s))  
variable      randni equal round(random(1,2592,234897))  
variable      randatomi equal ${randni}                   # This is to obtain an integer number for atom-id
variable      randatomi equal 1839                   
variable      randzi equal z[${randatomi}]                # Determine the z coordinate of the chosen atom
variable      randzi equal z[1839]                
# if the chosen atom is not a surface atom then restart the loop
if            "${randzi} < $(v_wthick - 0.7)" then "jump MDPBB.in loop"
set           atom ${randatomi} type 4                    # Set this grafted wall atom as a new type
set           atom 1839 type 4                    
  1 settings made for type
group         twg id ${randatomi}                         # Add this atom to a top-wall-grafted group
group         twg id 1839                         
6 atoms in group twg
variable      twgcount equal count(twg)
print         "twg contains ${twgcount}"
twg contains 6
print         "i = $(v_i)"                                # The index i should always be equal to the number of atom in twg
i = 6
variable      x0 equal x[${randatomi}]                    # Determine its x-coord
variable      x0 equal x[1839]                    
variable      y0 equal y[${randatomi}]                    # Determine its y-coord
variable      y0 equal y[1839]                    
variable      check0 equal ${check}                       # Count the number of atoms in the simulation
variable      check0 equal 2742                       
variable      b equal ${check}+1                          # The grafted bead id will be one higher after being inserted
variable      b equal 2742+1                          
if            "${twgcount} != $(v_i)" then "jump MDPBB.in loop"
# Otherwise insert the chain directly above the chosen wall atom pointing perpendicular to the wall
create_atoms  1 single ${x0} ${y0} ${z0} mol bs 24987 units box remap yes rotate 0 0 0 1
create_atoms  1 single 15.0803099936979 ${y0} ${z0} mol bs 24987 units box remap yes rotate 0 0 0 1
create_atoms  1 single 15.0803099936979 9.5244063118092 ${z0} mol bs 24987 units box remap yes rotate 0 0 0 1
create_atoms  1 single 15.0803099936979 9.5244063118092 17 mol bs 24987 units box remap yes rotate 0 0 0 1
Created 30 atoms
  create_atoms CPU = 0.000256062 secs
variable      check1 equal ${check}               # Count the new total number of atoms
variable      check1 equal 2772               
# Check that the molecule has indeed been inserted (This check is no longer an issue).
if            "${check1} != ${check0}" then "create_bonds  single/bond 2 ${randatomi} $b" "next i"
create_bonds  single/bond 2 ${randatomi} $b
create_bonds  single/bond 2 1839 $b
create_bonds  single/bond 2 1839 2743
  2 = max # of 1-2 neighbors
  5 = max # of special neighbors
  special bonds CPU = 0.00063014 secs
next i
jump MDPBB.in loop    # End of the loop
variable      randni equal round(random(1,${ntwall},$s))  # Pick a random "top" wall atom
variable      randni equal round(random(1,2592,$s))  
variable      randni equal round(random(1,2592,234897))  
variable      randatomi equal ${randni}                   # This is to obtain an integer number for atom-id
variable      randatomi equal 1785                   
variable      randzi equal z[${randatomi}]                # Determine the z coordinate of the chosen atom
variable      randzi equal z[1785]                
# if the chosen atom is not a surface atom then restart the loop
if            "${randzi} < $(v_wthick - 0.7)" then "jump MDPBB.in loop"
jump MDPBB.in loop
variable      randni equal round(random(1,${ntwall},$s))  # Pick a random "top" wall atom
variable      randni equal round(random(1,2592,$s))  
variable      randni equal round(random(1,2592,234897))  
variable      randatomi equal ${randni}                   # This is to obtain an integer number for atom-id
variable      randatomi equal 1448                   
variable      randzi equal z[${randatomi}]                # Determine the z coordinate of the chosen atom
variable      randzi equal z[1448]                
# if the chosen atom is not a surface atom then restart the loop
if            "${randzi} < $(v_wthick - 0.7)" then "jump MDPBB.in loop"
jump MDPBB.in loop
variable      randni equal round(random(1,${ntwall},$s))  # Pick a random "top" wall atom
variable      randni equal round(random(1,2592,$s))  
variable      randni equal round(random(1,2592,234897))  
variable      randatomi equal ${randni}                   # This is to obtain an integer number for atom-id
variable      randatomi equal 2019                   
variable      randzi equal z[${randatomi}]                # Determine the z coordinate of the chosen atom
variable      randzi equal z[2019]                
# if the chosen atom is not a surface atom then restart the loop
if            "${randzi} < $(v_wthick - 0.7)" then "jump MDPBB.in loop"
jump MDPBB.in loop
variable      randni equal round(random(1,${ntwall},$s))  # Pick a random "top" wall atom
variable      randni equal round(random(1,2592,$s))  
variable      randni equal round(random(1,2592,234897))  
variable      randatomi equal ${randni}                   # This is to obtain an integer number for atom-id
variable      randatomi equal 1595                   
variable      randzi equal z[${randatomi}]                # Determine the z coordinate of the chosen atom
variable      randzi equal z[1595]                
# if the chosen atom is not a surface atom then restart the loop
if            "${randzi} < $(v_wthick - 0.7)" then "jump MDPBB.in loop"
jump MDPBB.in loop
variable      randni equal round(random(1,${ntwall},$s))  # Pick a random "top" wall atom
variable      randni equal round(random(1,2592,$s))  
variable      randni equal round(random(1,2592,234897))  
variable      randatomi equal ${randni}                   # This is to obtain an integer number for atom-id
variable      randatomi equal 1606                   
variable      randzi equal z[${randatomi}]                # Determine the z coordinate of the chosen atom
variable      randzi equal z[1606]                
# if the chosen atom is not a surface atom then restart the loop
if            "${randzi} < $(v_wthick - 0.7)" then "jump MDPBB.in loop"
jump MDPBB.in loop
variable      randni equal round(random(1,${ntwall},$s))  # Pick a random "top" wall atom
variable      randni equal round(random(1,2592,$s))  
variable      randni equal round(random(1,2592,234897))  
variable      randatomi equal ${randni}                   # This is to obtain an integer number for atom-id
variable      randatomi equal 311                   
variable      randzi equal z[${randatomi}]                # Determine the z coordinate of the chosen atom
variable      randzi equal z[311]                
# if the chosen atom is not a surface atom then restart the loop
if            "${randzi} < $(v_wthick - 0.7)" then "jump MDPBB.in loop"
jump MDPBB.in loop
variable      randni equal round(random(1,${ntwall},$s))  # Pick a random "top" wall atom
variable      randni equal round(random(1,2592,$s))  
variable      randni equal round(random(1,2592,234897))  
variable      randatomi equal ${randni}                   # This is to obtain an integer number for atom-id
variable      randatomi equal 2257                   
variable      randzi equal z[${randatomi}]                # Determine the z coordinate of the chosen atom
variable      randzi equal z[2257]                
# if the chosen atom is not a surface atom then restart the loop
if            "${randzi} < $(v_wthick - 0.7)" then "jump MDPBB.in loop"
jump MDPBB.in loop
variable      randni equal round(random(1,${ntwall},$s))  # Pick a random "top" wall atom
variable      randni equal round(random(1,2592,$s))  
variable      randni equal round(random(1,2592,234897))  
variable      randatomi equal ${randni}                   # This is to obtain an integer number for atom-id
variable      randatomi equal 1560                   
variable      randzi equal z[${randatomi}]                # Determine the z coordinate of the chosen atom
variable      randzi equal z[1560]                
# if the chosen atom is not a surface atom then restart the loop
if            "${randzi} < $(v_wthick - 0.7)" then "jump MDPBB.in loop"
jump MDPBB.in loop
variable      randni equal round(random(1,${ntwall},$s))  # Pick a random "top" wall atom
variable      randni equal round(random(1,2592,$s))  
variable      randni equal round(random(1,2592,234897))  
variable      randatomi equal ${randni}                   # This is to obtain an integer number for atom-id
variable      randatomi equal 2382                   
variable      randzi equal z[${randatomi}]                # Determine the z coordinate of the chosen atom
variable      randzi equal z[2382]                
# if the chosen atom is not a surface atom then restart the loop
if            "${randzi} < $(v_wthick - 0.7)" then "jump MDPBB.in loop"
jump MDPBB.in loop
variable      randni equal round(random(1,${ntwall},$s))  # Pick a random "top" wall atom
variable      randni equal round(random(1,2592,$s))  
variable      randni equal round(random(1,2592,234897))  
variable      randatomi equal ${randni}                   # This is to obtain an integer number for atom-id
variable      randatomi equal 1806                   
variable      randzi equal z[${randatomi}]                # Determine the z coordinate of the chosen atom
variable      randzi equal z[1806]                
# if the chosen atom is not a surface atom then restart the loop
if            "${randzi} < $(v_wthick - 0.7)" then "jump MDPBB.in loop"
jump MDPBB.in loop
variable      randni equal round(random(1,${ntwall},$s))  # Pick a random "top" wall atom
variable      randni equal round(random(1,2592,$s))  
variable      randni equal round(random(1,2592,234897))  
variable      randatomi equal ${randni}                   # This is to obtain an integer number for atom-id
variable      randatomi equal 2327                   
variable      randzi equal z[${randatomi}]                # Determine the z coordinate of the chosen atom
variable      randzi equal z[2327]                
# if the chosen atom is not a surface atom then restart the loop
if            "${randzi} < $(v_wthick - 0.7)" then "jump MDPBB.in loop"
set           atom ${randatomi} type 4                    # Set this grafted wall atom as a new type
set           atom 2327 type 4                    
  1 settings made for type
group         twg id ${randatomi}                         # Add this atom to a top-wall-grafted group
group         twg id 2327                         
7 atoms in group twg
variable      twgcount equal count(twg)
print         "twg contains ${twgcount}"
twg contains 7
print         "i = $(v_i)"                                # The index i should always be equal to the number of atom in twg
i = 7
variable      x0 equal x[${randatomi}]                    # Determine its x-coord
variable      x0 equal x[2327]                    
variable      y0 equal y[${randatomi}]                    # Determine its y-coord
variable      y0 equal y[2327]                    
variable      check0 equal ${check}                       # Count the number of atoms in the simulation
variable      check0 equal 2772                       
variable      b equal ${check}+1                          # The grafted bead id will be one higher after being inserted
variable      b equal 2772+1                          
if            "${twgcount} != $(v_i)" then "jump MDPBB.in loop"
# Otherwise insert the chain directly above the chosen wall atom pointing perpendicular to the wall
create_atoms  1 single ${x0} ${y0} ${z0} mol bs 24987 units box remap yes rotate 0 0 0 1
create_atoms  1 single 23.0173152535389 ${y0} ${z0} mol bs 24987 units box remap yes rotate 0 0 0 1
create_atoms  1 single 23.0173152535389 15.874010519682 ${z0} mol bs 24987 units box remap yes rotate 0 0 0 1
create_atoms  1 single 23.0173152535389 15.874010519682 17 mol bs 24987 units box remap yes rotate 0 0 0 1
Created 30 atoms
  create_atoms CPU = 0.00209093 secs
variable      check1 equal ${check}               # Count the new total number of atoms
variable      check1 equal 2802               
# Check that the molecule has indeed been inserted (This check is no longer an issue).
if            "${check1} != ${check0}" then "create_bonds  single/bond 2 ${randatomi} $b" "next i"
create_bonds  single/bond 2 ${randatomi} $b
create_bonds  single/bond 2 2327 $b
create_bonds  single/bond 2 2327 2773
  2 = max # of 1-2 neighbors
  5 = max # of special neighbors
  special bonds CPU = 0.000632048 secs
next i
jump MDPBB.in loop    # End of the loop
variable      randni equal round(random(1,${ntwall},$s))  # Pick a random "top" wall atom
variable      randni equal round(random(1,2592,$s))  
variable      randni equal round(random(1,2592,234897))  
variable      randatomi equal ${randni}                   # This is to obtain an integer number for atom-id
variable      randatomi equal 1525                   
variable      randzi equal z[${randatomi}]                # Determine the z coordinate of the chosen atom
variable      randzi equal z[1525]                
# if the chosen atom is not a surface atom then restart the loop
if            "${randzi} < $(v_wthick - 0.7)" then "jump MDPBB.in loop"
jump MDPBB.in loop
variable      randni equal round(random(1,${ntwall},$s))  # Pick a random "top" wall atom
variable      randni equal round(random(1,2592,$s))  
variable      randni equal round(random(1,2592,234897))  
variable      randatomi equal ${randni}                   # This is to obtain an integer number for atom-id
variable      randatomi equal 2204                   
variable      randzi equal z[${randatomi}]                # Determine the z coordinate of the chosen atom
variable      randzi equal z[2204]                
# if the chosen atom is not a surface atom then restart the loop
if            "${randzi} < $(v_wthick - 0.7)" then "jump MDPBB.in loop"
jump MDPBB.in loop
variable      randni equal round(random(1,${ntwall},$s))  # Pick a random "top" wall atom
variable      randni equal round(random(1,2592,$s))  
variable      randni equal round(random(1,2592,234897))  
variable      randatomi equal ${randni}                   # This is to obtain an integer number for atom-id
variable      randatomi equal 2172                   
variable      randzi equal z[${randatomi}]                # Determine the z coordinate of the chosen atom
variable      randzi equal z[2172]                
# if the chosen atom is not a surface atom then restart the loop
if            "${randzi} < $(v_wthick - 0.7)" then "jump MDPBB.in loop"
jump MDPBB.in loop
variable      randni equal round(random(1,${ntwall},$s))  # Pick a random "top" wall atom
variable      randni equal round(random(1,2592,$s))  
variable      randni equal round(random(1,2592,234897))  
variable      randatomi equal ${randni}                   # This is to obtain an integer number for atom-id
variable      randatomi equal 1078                   
variable      randzi equal z[${randatomi}]                # Determine the z coordinate of the chosen atom
variable      randzi equal z[1078]                
# if the chosen atom is not a surface atom then restart the loop
if            "${randzi} < $(v_wthick - 0.7)" then "jump MDPBB.in loop"
jump MDPBB.in loop
variable      randni equal round(random(1,${ntwall},$s))  # Pick a random "top" wall atom
variable      randni equal round(random(1,2592,$s))  
variable      randni equal round(random(1,2592,234897))  
variable      randatomi equal ${randni}                   # This is to obtain an integer number for atom-id
variable      randatomi equal 2588                   
variable      randzi equal z[${randatomi}]                # Determine the z coordinate of the chosen atom
variable      randzi equal z[2588]                
# if the chosen atom is not a surface atom then restart the loop
if            "${randzi} < $(v_wthick - 0.7)" then "jump MDPBB.in loop"
set           atom ${randatomi} type 4                    # Set this grafted wall atom as a new type
set           atom 2588 type 4                    
  1 settings made for type
group         twg id ${randatomi}                         # Add this atom to a top-wall-grafted group
group         twg id 2588                         
8 atoms in group twg
variable      twgcount equal count(twg)
print         "twg contains ${twgcount}"
twg contains 8
print         "i = $(v_i)"                                # The index i should always be equal to the number of atom in twg
i = 8
variable      x0 equal x[${randatomi}]                    # Determine its x-coord
variable      x0 equal x[2588]                    
variable      y0 equal y[${randatomi}]                    # Determine its y-coord
variable      y0 equal y[2588]                    
variable      check0 equal ${check}                       # Count the number of atoms in the simulation
variable      check0 equal 2802                       
variable      b equal ${check}+1                          # The grafted bead id will be one higher after being inserted
variable      b equal 2802+1                          
if            "${twgcount} != $(v_i)" then "jump MDPBB.in loop"
# Otherwise insert the chain directly above the chosen wall atom pointing perpendicular to the wall
create_atoms  1 single ${x0} ${y0} ${z0} mol bs 24987 units box remap yes rotate 0 0 0 1
create_atoms  1 single 25.3984168314912 ${y0} ${z0} mol bs 24987 units box remap yes rotate 0 0 0 1
create_atoms  1 single 25.3984168314912 27.7795184094435 ${z0} mol bs 24987 units box remap yes rotate 0 0 0 1
create_atoms  1 single 25.3984168314912 27.7795184094435 17 mol bs 24987 units box remap yes rotate 0 0 0 1
Created 30 atoms
  create_atoms CPU = 0.000262976 secs
variable      check1 equal ${check}               # Count the new total number of atoms
variable      check1 equal 2832               
# Check that the molecule has indeed been inserted (This check is no longer an issue).
if            "${check1} != ${check0}" then "create_bonds  single/bond 2 ${randatomi} $b" "next i"
create_bonds  single/bond 2 ${randatomi} $b
create_bonds  single/bond 2 2588 $b
create_bonds  single/bond 2 2588 2803
  2 = max # of 1-2 neighbors
  5 = max # of special neighbors
  special bonds CPU = 0.000627995 secs
next i
jump MDPBB.in loop    # End of the loop
variable      randni equal round(random(1,${ntwall},$s))  # Pick a random "top" wall atom
variable      randni equal round(random(1,2592,$s))  
variable      randni equal round(random(1,2592,234897))  
variable      randatomi equal ${randni}                   # This is to obtain an integer number for atom-id
variable      randatomi equal 2526                   
variable      randzi equal z[${randatomi}]                # Determine the z coordinate of the chosen atom
variable      randzi equal z[2526]                
# if the chosen atom is not a surface atom then restart the loop
if            "${randzi} < $(v_wthick - 0.7)" then "jump MDPBB.in loop"
jump MDPBB.in loop
variable      randni equal round(random(1,${ntwall},$s))  # Pick a random "top" wall atom
variable      randni equal round(random(1,2592,$s))  
variable      randni equal round(random(1,2592,234897))  
variable      randatomi equal ${randni}                   # This is to obtain an integer number for atom-id
variable      randatomi equal 1878                   
variable      randzi equal z[${randatomi}]                # Determine the z coordinate of the chosen atom
variable      randzi equal z[1878]                
# if the chosen atom is not a surface atom then restart the loop
if            "${randzi} < $(v_wthick - 0.7)" then "jump MDPBB.in loop"
jump MDPBB.in loop
variable      randni equal round(random(1,${ntwall},$s))  # Pick a random "top" wall atom
variable      randni equal round(random(1,2592,$s))  
variable      randni equal round(random(1,2592,234897))  
variable      randatomi equal ${randni}                   # This is to obtain an integer number for atom-id
variable      randatomi equal 2435                   
variable      randzi equal z[${randatomi}]                # Determine the z coordinate of the chosen atom
variable      randzi equal z[2435]                
# if the chosen atom is not a surface atom then restart the loop
if            "${randzi} < $(v_wthick - 0.7)" then "jump MDPBB.in loop"
set           atom ${randatomi} type 4                    # Set this grafted wall atom as a new type
set           atom 2435 type 4                    
  1 settings made for type
group         twg id ${randatomi}                         # Add this atom to a top-wall-grafted group
group         twg id 2435                         
9 atoms in group twg
variable      twgcount equal count(twg)
print         "twg contains ${twgcount}"
twg contains 9
print         "i = $(v_i)"                                # The index i should always be equal to the number of atom in twg
i = 9
variable      x0 equal x[${randatomi}]                    # Determine its x-coord
variable      x0 equal x[2435]                    
variable      y0 equal y[${randatomi}]                    # Determine its y-coord
variable      y0 equal y[2435]                    
variable      check0 equal ${check}                       # Count the number of atoms in the simulation
variable      check0 equal 2832                       
variable      b equal ${check}+1                          # The grafted bead id will be one higher after being inserted
variable      b equal 2832+1                          
if            "${twgcount} != $(v_i)" then "jump MDPBB.in loop"
# Otherwise insert the chain directly above the chosen wall atom pointing perpendicular to the wall
create_atoms  1 single ${x0} ${y0} ${z0} mol bs 24987 units box remap yes rotate 0 0 0 1
create_atoms  1 single 23.0173152535389 ${y0} ${z0} mol bs 24987 units box remap yes rotate 0 0 0 1
create_atoms  1 single 23.0173152535389 20.6362136755866 ${z0} mol bs 24987 units box remap yes rotate 0 0 0 1
create_atoms  1 single 23.0173152535389 20.6362136755866 17 mol bs 24987 units box remap yes rotate 0 0 0 1
Created 30 atoms
  create_atoms CPU = 0.000258923 secs
variable      check1 equal ${check}               # Count the new total number of atoms
variable      check1 equal 2862               
# Check that the molecule has indeed been inserted (This check is no longer an issue).
if            "${check1} != ${check0}" then "create_bonds  single/bond 2 ${randatomi} $b" "next i"
create_bonds  single/bond 2 ${randatomi} $b
create_bonds  single/bond 2 2435 $b
create_bonds  single/bond 2 2435 2833
  2 = max # of 1-2 neighbors
  5 = max # of special neighbors
  special bonds CPU = 0.000636101 secs
next i
jump MDPBB.in loop    # End of the loop
variable      randni equal round(random(1,${ntwall},$s))  # Pick a random "top" wall atom
variable      randni equal round(random(1,2592,$s))  
variable      randni equal round(random(1,2592,234897))  
variable      randatomi equal ${randni}                   # This is to obtain an integer number for atom-id
variable      randatomi equal 612                   
variable      randzi equal z[${randatomi}]                # Determine the z coordinate of the chosen atom
variable      randzi equal z[612]                
# if the chosen atom is not a surface atom then restart the loop
if            "${randzi} < $(v_wthick - 0.7)" then "jump MDPBB.in loop"
set           atom ${randatomi} type 4                    # Set this grafted wall atom as a new type
set           atom 612 type 4                    
  1 settings made for type
group         twg id ${randatomi}                         # Add this atom to a top-wall-grafted group
group         twg id 612                         
10 atoms in group twg
variable      twgcount equal count(twg)
print         "twg contains ${twgcount}"
twg contains 10
print         "i = $(v_i)"                                # The index i should always be equal to the number of atom in twg
i = 10
variable      x0 equal x[${randatomi}]                    # Determine its x-coord
variable      x0 equal x[612]                    
variable      y0 equal y[${randatomi}]                    # Determine its y-coord
variable      y0 equal y[612]                    
variable      check0 equal ${check}                       # Count the number of atoms in the simulation
variable      check0 equal 2862                       
variable      b equal ${check}+1                          # The grafted bead id will be one higher after being inserted
variable      b equal 2862+1                          
if            "${twgcount} != $(v_i)" then "jump MDPBB.in loop"
# Otherwise insert the chain directly above the chosen wall atom pointing perpendicular to the wall
create_atoms  1 single ${x0} ${y0} ${z0} mol bs 24987 units box remap yes rotate 0 0 0 1
create_atoms  1 single 12.6992084157456 ${y0} ${z0} mol bs 24987 units box remap yes rotate 0 0 0 1
create_atoms  1 single 12.6992084157456 11.9055078897615 ${z0} mol bs 24987 units box remap yes rotate 0 0 0 1
create_atoms  1 single 12.6992084157456 11.9055078897615 17 mol bs 24987 units box remap yes rotate 0 0 0 1
Created 30 atoms
  create_atoms CPU = 0.000273943 secs
variable      check1 equal ${check}               # Count the new total number of atoms
variable      check1 equal 2892               
# Check that the molecule has indeed been inserted (This check is no longer an issue).
if            "${check1} != ${check0}" then "create_bonds  single/bond 2 ${randatomi} $b" "next i"
create_bonds  single/bond 2 ${randatomi} $b
create_bonds  single/bond 2 612 $b
create_bonds  single/bond 2 612 2863
  2 = max # of 1-2 neighbors
  5 = max # of special neighbors
  special bonds CPU = 0.000636816 secs
next i
jump MDPBB.in loop    # End of the loop
variable      randni equal round(random(1,${ntwall},$s))  # Pick a random "top" wall atom
variable      randni equal round(random(1,2592,$s))  
variable      randni equal round(random(1,2592,234897))  
variable      randatomi equal ${randni}                   # This is to obtain an integer number for atom-id
variable      randatomi equal 2418                   
variable      randzi equal z[${randatomi}]                # Determine the z coordinate of the chosen atom
variable      randzi equal z[2418]                
# if the chosen atom is not a surface atom then restart the loop
if            "${randzi} < $(v_wthick - 0.7)" then "jump MDPBB.in loop"
jump MDPBB.in loop
variable      randni equal round(random(1,${ntwall},$s))  # Pick a random "top" wall atom
variable      randni equal round(random(1,2592,$s))  
variable      randni equal round(random(1,2592,234897))  
variable      randatomi equal ${randni}                   # This is to obtain an integer number for atom-id
variable      randatomi equal 339                   
variable      randzi equal z[${randatomi}]                # Determine the z coordinate of the chosen atom
variable      randzi equal z[339]                
# if the chosen atom is not a surface atom then restart the loop
if            "${randzi} < $(v_wthick - 0.7)" then "jump MDPBB.in loop"
set           atom ${randatomi} type 4                    # Set this grafted wall atom as a new type
set           atom 339 type 4                    
  1 settings made for type
group         twg id ${randatomi}                         # Add this atom to a top-wall-grafted group
group         twg id 339                         
11 atoms in group twg
variable      twgcount equal count(twg)
print         "twg contains ${twgcount}"
twg contains 11
print         "i = $(v_i)"                                # The index i should always be equal to the number of atom in twg
i = 11
variable      x0 equal x[${randatomi}]                    # Determine its x-coord
variable      x0 equal x[339]                    
variable      y0 equal y[${randatomi}]                    # Determine its y-coord
variable      y0 equal y[339]                    
variable      check0 equal ${check}                       # Count the number of atoms in the simulation
variable      check0 equal 2892                       
variable      b equal ${check}+1                          # The grafted bead id will be one higher after being inserted
variable      b equal 2892+1                          
if            "${twgcount} != $(v_i)" then "jump MDPBB.in loop"
# Otherwise insert the chain directly above the chosen wall atom pointing perpendicular to the wall
create_atoms  1 single ${x0} ${y0} ${z0} mol bs 24987 units box remap yes rotate 0 0 0 1
create_atoms  1 single 5.5559036818887 ${y0} ${z0} mol bs 24987 units box remap yes rotate 0 0 0 1
create_atoms  1 single 5.5559036818887 0 ${z0} mol bs 24987 units box remap yes rotate 0 0 0 1
create_atoms  1 single 5.5559036818887 0 17 mol bs 24987 units box remap yes rotate 0 0 0 1
Created 30 atoms
  create_atoms CPU = 0.000265837 secs
variable      check1 equal ${check}               # Count the new total number of atoms
variable      check1 equal 2922               
# Check that the molecule has indeed been inserted (This check is no longer an issue).
if            "${check1} != ${check0}" then "create_bonds  single/bond 2 ${randatomi} $b" "next i"
create_bonds  single/bond 2 ${randatomi} $b
create_bonds  single/bond 2 339 $b
create_bonds  single/bond 2 339 2893
  2 = max # of 1-2 neighbors
  5 = max # of special neighbors
  special bonds CPU = 0.000627995 secs
next i
jump MDPBB.in loop    # End of the loop
variable      randni equal round(random(1,${ntwall},$s))  # Pick a random "top" wall atom
variable      randni equal round(random(1,2592,$s))  
variable      randni equal round(random(1,2592,234897))  
variable      randatomi equal ${randni}                   # This is to obtain an integer number for atom-id
variable      randatomi equal 2204                   
variable      randzi equal z[${randatomi}]                # Determine the z coordinate of the chosen atom
variable      randzi equal z[2204]                
# if the chosen atom is not a surface atom then restart the loop
if            "${randzi} < $(v_wthick - 0.7)" then "jump MDPBB.in loop"
jump MDPBB.in loop
variable      randni equal round(random(1,${ntwall},$s))  # Pick a random "top" wall atom
variable      randni equal round(random(1,2592,$s))  
variable      randni equal round(random(1,2592,234897))  
variable      randatomi equal ${randni}                   # This is to obtain an integer number for atom-id
variable      randatomi equal 2421                   
variable      randzi equal z[${randatomi}]                # Determine the z coordinate of the chosen atom
variable      randzi equal z[2421]                
# if the chosen atom is not a surface atom then restart the loop
if            "${randzi} < $(v_wthick - 0.7)" then "jump MDPBB.in loop"
jump MDPBB.in loop
variable      randni equal round(random(1,${ntwall},$s))  # Pick a random "top" wall atom
variable      randni equal round(random(1,2592,$s))  
variable      randni equal round(random(1,2592,234897))  
variable      randatomi equal ${randni}                   # This is to obtain an integer number for atom-id
variable      randatomi equal 888                   
variable      randzi equal z[${randatomi}]                # Determine the z coordinate of the chosen atom
variable      randzi equal z[888]                
# if the chosen atom is not a surface atom then restart the loop
if            "${randzi} < $(v_wthick - 0.7)" then "jump MDPBB.in loop"
jump MDPBB.in loop
variable      randni equal round(random(1,${ntwall},$s))  # Pick a random "top" wall atom
variable      randni equal round(random(1,2592,$s))  
variable      randni equal round(random(1,2592,234897))  
variable      randatomi equal ${randni}                   # This is to obtain an integer number for atom-id
variable      randatomi equal 675                   
variable      randzi equal z[${randatomi}]                # Determine the z coordinate of the chosen atom
variable      randzi equal z[675]                
# if the chosen atom is not a surface atom then restart the loop
if            "${randzi} < $(v_wthick - 0.7)" then "jump MDPBB.in loop"
jump MDPBB.in loop
variable      randni equal round(random(1,${ntwall},$s))  # Pick a random "top" wall atom
variable      randni equal round(random(1,2592,$s))  
variable      randni equal round(random(1,2592,234897))  
variable      randatomi equal ${randni}                   # This is to obtain an integer number for atom-id
variable      randatomi equal 1721                   
variable      randzi equal z[${randatomi}]                # Determine the z coordinate of the chosen atom
variable      randzi equal z[1721]                
# if the chosen atom is not a surface atom then restart the loop
if            "${randzi} < $(v_wthick - 0.7)" then "jump MDPBB.in loop"
jump MDPBB.in loop
variable      randni equal round(random(1,${ntwall},$s))  # Pick a random "top" wall atom
variable      randni equal round(random(1,2592,$s))  
variable      randni equal round(random(1,2592,234897))  
variable      randatomi equal ${randni}                   # This is to obtain an integer number for atom-id
variable      randatomi equal 1209                   
variable      randzi equal z[${randatomi}]                # Determine the z coordinate of the chosen atom
variable      randzi equal z[1209]                
# if the chosen atom is not a surface atom then restart the loop
if            "${randzi} < $(v_wthick - 0.7)" then "jump MDPBB.in loop"
jump MDPBB.in loop
variable      randni equal round(random(1,${ntwall},$s))  # Pick a random "top" wall atom
variable      randni equal round(random(1,2592,$s))  
variable      randni equal round(random(1,2592,234897))  
variable      randatomi equal ${randni}                   # This is to obtain an integer number for atom-id
variable      randatomi equal 375                   
variable      randzi equal z[${randatomi}]                # Determine the z coordinate of the chosen atom
variable      randzi equal z[375]                
# if the chosen atom is not a surface atom then restart the loop
if            "${randzi} < $(v_wthick - 0.7)" then "jump MDPBB.in loop"
set           atom ${randatomi} type 4                    # Set this grafted wall atom as a new type
set           atom 375 type 4                    
  1 settings made for type
group         twg id ${randatomi}                         # Add this atom to a top-wall-grafted group
group         twg id 375                         
12 atoms in group twg
variable      twgcount equal count(twg)
print         "twg contains ${twgcount}"
twg contains 12
print         "i = $(v_i)"                                # The index i should always be equal to the number of atom in twg
i = 12
variable      x0 equal x[${randatomi}]                    # Determine its x-coord
variable      x0 equal x[375]                    
variable      y0 equal y[${randatomi}]                    # Determine its y-coord
variable      y0 equal y[375]                    
variable      check0 equal ${check}                       # Count the number of atoms in the simulation
variable      check0 equal 2922                       
variable      b equal ${check}+1                          # The grafted bead id will be one higher after being inserted
variable      b equal 2922+1                          
if            "${twgcount} != $(v_i)" then "jump MDPBB.in loop"
# Otherwise insert the chain directly above the chosen wall atom pointing perpendicular to the wall
create_atoms  1 single ${x0} ${y0} ${z0} mol bs 24987 units box remap yes rotate 0 0 0 1
create_atoms  1 single 5.5559036818887 ${y0} ${z0} mol bs 24987 units box remap yes rotate 0 0 0 1
create_atoms  1 single 5.5559036818887 1.5874010519682 ${z0} mol bs 24987 units box remap yes rotate 0 0 0 1
create_atoms  1 single 5.5559036818887 1.5874010519682 17 mol bs 24987 units box remap yes rotate 0 0 0 1
Created 30 atoms
  create_atoms CPU = 0.000264883 secs
variable      check1 equal ${check}               # Count the new total number of atoms
variable      check1 equal 2952               
# Check that the molecule has indeed been inserted (This check is no longer an issue).
if            "${check1} != ${check0}" then "create_bonds  single/bond 2 ${randatomi} $b" "next i"
create_bonds  single/bond 2 ${randatomi} $b
create_bonds  single/bond 2 375 $b
create_bonds  single/bond 2 375 2923
  2 = max # of 1-2 neighbors
  5 = max # of special neighbors
  special bonds CPU = 0.000634909 secs
next i
jump MDPBB.in loop    # End of the loop
variable      randni equal round(random(1,${ntwall},$s))  # Pick a random "top" wall atom
variable      randni equal round(random(1,2592,$s))  
variable      randni equal round(random(1,2592,234897))  
variable      randatomi equal ${randni}                   # This is to obtain an integer number for atom-id
variable      randatomi equal 2387                   
variable      randzi equal z[${randatomi}]                # Determine the z coordinate of the chosen atom
variable      randzi equal z[2387]                
# if the chosen atom is not a surface atom then restart the loop
if            "${randzi} < $(v_wthick - 0.7)" then "jump MDPBB.in loop"
set           atom ${randatomi} type 4                    # Set this grafted wall atom as a new type
set           atom 2387 type 4                    
  1 settings made for type
group         twg id ${randatomi}                         # Add this atom to a top-wall-grafted group
group         twg id 2387                         
13 atoms in group twg
variable      twgcount equal count(twg)
print         "twg contains ${twgcount}"
twg contains 13
print         "i = $(v_i)"                                # The index i should always be equal to the number of atom in twg
i = 13
variable      x0 equal x[${randatomi}]                    # Determine its x-coord
variable      x0 equal x[2387]                    
variable      y0 equal y[${randatomi}]                    # Determine its y-coord
variable      y0 equal y[2387]                    
variable      check0 equal ${check}                       # Count the number of atoms in the simulation
variable      check0 equal 2952                       
variable      b equal ${check}+1                          # The grafted bead id will be one higher after being inserted
variable      b equal 2952+1                          
if            "${twgcount} != $(v_i)" then "jump MDPBB.in loop"
# Otherwise insert the chain directly above the chosen wall atom pointing perpendicular to the wall
create_atoms  1 single ${x0} ${y0} ${z0} mol bs 24987 units box remap yes rotate 0 0 0 1
create_atoms  1 single 18.2551120976343 ${y0} ${z0} mol bs 24987 units box remap yes rotate 0 0 0 1
create_atoms  1 single 18.2551120976343 19.0488126236184 ${z0} mol bs 24987 units box remap yes rotate 0 0 0 1
create_atoms  1 single 18.2551120976343 19.0488126236184 17 mol bs 24987 units box remap yes rotate 0 0 0 1
Created 30 atoms
  create_atoms CPU = 0.000260115 secs
variable      check1 equal ${check}               # Count the new total number of atoms
variable      check1 equal 2982               
# Check that the molecule has indeed been inserted (This check is no longer an issue).
if            "${check1} != ${check0}" then "create_bonds  single/bond 2 ${randatomi} $b" "next i"
create_bonds  single/bond 2 ${randatomi} $b
create_bonds  single/bond 2 2387 $b
create_bonds  single/bond 2 2387 2953
  2 = max # of 1-2 neighbors
  5 = max # of special neighbors
  special bonds CPU = 0.000645161 secs
next i
jump MDPBB.in loop    # End of the loop
variable      randni equal round(random(1,${ntwall},$s))  # Pick a random "top" wall atom
variable      randni equal round(random(1,2592,$s))  
variable      randni equal round(random(1,2592,234897))  
variable      randatomi equal ${randni}                   # This is to obtain an integer number for atom-id
variable      randatomi equal 2480                   
variable      randzi equal z[${randatomi}]                # Determine the z coordinate of the chosen atom
variable      randzi equal z[2480]                
# if the chosen atom is not a surface atom then restart the loop
if            "${randzi} < $(v_wthick - 0.7)" then "jump MDPBB.in loop"
set           atom ${randatomi} type 4                    # Set this grafted wall atom as a new type
set           atom 2480 type 4                    
  1 settings made for type
group         twg id ${randatomi}                         # Add this atom to a top-wall-grafted group
group         twg id 2480                         
14 atoms in group twg
variable      twgcount equal count(twg)
print         "twg contains ${twgcount}"
twg contains 14
print         "i = $(v_i)"                                # The index i should always be equal to the number of atom in twg
i = 14
variable      x0 equal x[${randatomi}]                    # Determine its x-coord
variable      x0 equal x[2480]                    
variable      y0 equal y[${randatomi}]                    # Determine its y-coord
variable      y0 equal y[2480]                    
variable      check0 equal ${check}                       # Count the number of atoms in the simulation
variable      check0 equal 2982                       
variable      b equal ${check}+1                          # The grafted bead id will be one higher after being inserted
variable      b equal 2982+1                          
if            "${twgcount} != $(v_i)" then "jump MDPBB.in loop"
# Otherwise insert the chain directly above the chosen wall atom pointing perpendicular to the wall
create_atoms  1 single ${x0} ${y0} ${z0} mol bs 24987 units box remap yes rotate 0 0 0 1
create_atoms  1 single 25.3984168314912 ${y0} ${z0} mol bs 24987 units box remap yes rotate 0 0 0 1
create_atoms  1 single 25.3984168314912 23.0173152535389 ${z0} mol bs 24987 units box remap yes rotate 0 0 0 1
create_atoms  1 single 25.3984168314912 23.0173152535389 17 mol bs 24987 units box remap yes rotate 0 0 0 1
Created 30 atoms
  create_atoms CPU = 0.000272036 secs
variable      check1 equal ${check}               # Count the new total number of atoms
variable      check1 equal 3012               
# Check that the molecule has indeed been inserted (This check is no longer an issue).
if            "${check1} != ${check0}" then "create_bonds  single/bond 2 ${randatomi} $b" "next i"
create_bonds  single/bond 2 ${randatomi} $b
create_bonds  single/bond 2 2480 $b
create_bonds  single/bond 2 2480 2983
  2 = max # of 1-2 neighbors
  5 = max # of special neighbors
  special bonds CPU = 0.000638008 secs
next i
jump MDPBB.in loop    # End of the loop
variable      randni equal round(random(1,${ntwall},$s))  # Pick a random "top" wall atom
variable      randni equal round(random(1,2592,$s))  
variable      randni equal round(random(1,2592,234897))  
variable      randatomi equal ${randni}                   # This is to obtain an integer number for atom-id
variable      randatomi equal 2344                   
variable      randzi equal z[${randatomi}]                # Determine the z coordinate of the chosen atom
variable      randzi equal z[2344]                
# if the chosen atom is not a surface atom then restart the loop
if            "${randzi} < $(v_wthick - 0.7)" then "jump MDPBB.in loop"
set           atom ${randatomi} type 4                    # Set this grafted wall atom as a new type
set           atom 2344 type 4                    
  1 settings made for type
group         twg id ${randatomi}                         # Add this atom to a top-wall-grafted group
group         twg id 2344                         
15 atoms in group twg
variable      twgcount equal count(twg)
print         "twg contains ${twgcount}"
twg contains 15
print         "i = $(v_i)"                                # The index i should always be equal to the number of atom in twg
i = 15
variable      x0 equal x[${randatomi}]                    # Determine its x-coord
variable      x0 equal x[2344]                    
variable      y0 equal y[${randatomi}]                    # Determine its y-coord
variable      y0 equal y[2344]                    
variable      check0 equal ${check}                       # Count the number of atoms in the simulation
variable      check0 equal 3012                       
variable      b equal ${check}+1                          # The grafted bead id will be one higher after being inserted
variable      b equal 3012+1                          
if            "${twgcount} != $(v_i)" then "jump MDPBB.in loop"
# Otherwise insert the chain directly above the chosen wall atom pointing perpendicular to the wall
create_atoms  1 single ${x0} ${y0} ${z0} mol bs 24987 units box remap yes rotate 0 0 0 1
create_atoms  1 single 14.2866094677138 ${y0} ${z0} mol bs 24987 units box remap yes rotate 0 0 0 1
create_atoms  1 single 14.2866094677138 18.2551120976343 ${z0} mol bs 24987 units box remap yes rotate 0 0 0 1
create_atoms  1 single 14.2866094677138 18.2551120976343 17 mol bs 24987 units box remap yes rotate 0 0 0 1
Created 30 atoms
  create_atoms CPU = 0.000281096 secs
variable      check1 equal ${check}               # Count the new total number of atoms
variable      check1 equal 3042               
# Check that the molecule has indeed been inserted (This check is no longer an issue).
if            "${check1} != ${check0}" then "create_bonds  single/bond 2 ${randatomi} $b" "next i"
create_bonds  single/bond 2 ${randatomi} $b
create_bonds  single/bond 2 2344 $b
create_bonds  single/bond 2 2344 3013
  2 = max # of 1-2 neighbors
  5 = max # of special neighbors
  special bonds CPU = 0.000637054 secs
next i
jump MDPBB.in loop    # End of the loop
variable      randni equal round(random(1,${ntwall},$s))  # Pick a random "top" wall atom
variable      randni equal round(random(1,2592,$s))  
variable      randni equal round(random(1,2592,234897))  
variable      randatomi equal ${randni}                   # This is to obtain an integer number for atom-id
variable      randatomi equal 2066                   
variable      randzi equal z[${randatomi}]                # Determine the z coordinate of the chosen atom
variable      randzi equal z[2066]                
# if the chosen atom is not a surface atom then restart the loop
if            "${randzi} < $(v_wthick - 0.7)" then "jump MDPBB.in loop"
jump MDPBB.in loop
variable      randni equal round(random(1,${ntwall},$s))  # Pick a random "top" wall atom
variable      randni equal round(random(1,2592,$s))  
variable      randni equal round(random(1,2592,234897))  
variable      randatomi equal ${randni}                   # This is to obtain an integer number for atom-id
variable      randatomi equal 1137                   
variable      randzi equal z[${randatomi}]                # Determine the z coordinate of the chosen atom
variable      randzi equal z[1137]                
# if the chosen atom is not a surface atom then restart the loop
if            "${randzi} < $(v_wthick - 0.7)" then "jump MDPBB.in loop"
jump MDPBB.in loop
variable      randni equal round(random(1,${ntwall},$s))  # Pick a random "top" wall atom
variable      randni equal round(random(1,2592,$s))  
variable      randni equal round(random(1,2592,234897))  
variable      randatomi equal ${randni}                   # This is to obtain an integer number for atom-id
variable      randatomi equal 962                   
variable      randzi equal z[${randatomi}]                # Determine the z coordinate of the chosen atom
variable      randzi equal z[962]                
# if the chosen atom is not a surface atom then restart the loop
if            "${randzi} < $(v_wthick - 0.7)" then "jump MDPBB.in loop"
jump MDPBB.in loop
variable      randni equal round(random(1,${ntwall},$s))  # Pick a random "top" wall atom
variable      randni equal round(random(1,2592,$s))  
variable      randni equal round(random(1,2592,234897))  
variable      randatomi equal ${randni}                   # This is to obtain an integer number for atom-id
variable      randatomi equal 1818                   
variable      randzi equal z[${randatomi}]                # Determine the z coordinate of the chosen atom
variable      randzi equal z[1818]                
# if the chosen atom is not a surface atom then restart the loop
if            "${randzi} < $(v_wthick - 0.7)" then "jump MDPBB.in loop"
jump MDPBB.in loop
variable      randni equal round(random(1,${ntwall},$s))  # Pick a random "top" wall atom
variable      randni equal round(random(1,2592,$s))  
variable      randni equal round(random(1,2592,234897))  
variable      randatomi equal ${randni}                   # This is to obtain an integer number for atom-id
variable      randatomi equal 243                   
variable      randzi equal z[${randatomi}]                # Determine the z coordinate of the chosen atom
variable      randzi equal z[243]                
# if the chosen atom is not a surface atom then restart the loop
if            "${randzi} < $(v_wthick - 0.7)" then "jump MDPBB.in loop"
jump MDPBB.in loop
variable      randni equal round(random(1,${ntwall},$s))  # Pick a random "top" wall atom
variable      randni equal round(random(1,2592,$s))  
variable      randni equal round(random(1,2592,234897))  
variable      randatomi equal ${randni}                   # This is to obtain an integer number for atom-id
variable      randatomi equal 982                   
variable      randzi equal z[${randatomi}]                # Determine the z coordinate of the chosen atom
variable      randzi equal z[982]                
# if the chosen atom is not a surface atom then restart the loop
if            "${randzi} < $(v_wthick - 0.7)" then "jump MDPBB.in loop"
jump MDPBB.in loop
variable      randni equal round(random(1,${ntwall},$s))  # Pick a random "top" wall atom
variable      randni equal round(random(1,2592,$s))  
variable      randni equal round(random(1,2592,234897))  
variable      randatomi equal ${randni}                   # This is to obtain an integer number for atom-id
variable      randatomi equal 1131                   
variable      randzi equal z[${randatomi}]                # Determine the z coordinate of the chosen atom
variable      randzi equal z[1131]                
# if the chosen atom is not a surface atom then restart the loop
if            "${randzi} < $(v_wthick - 0.7)" then "jump MDPBB.in loop"
set           atom ${randatomi} type 4                    # Set this grafted wall atom as a new type
set           atom 1131 type 4                    
  1 settings made for type
group         twg id ${randatomi}                         # Add this atom to a top-wall-grafted group
group         twg id 1131                         
16 atoms in group twg
variable      twgcount equal count(twg)
print         "twg contains ${twgcount}"
twg contains 16
[...]
 4957000    4.9377537    1.4274129    3.5103408  -0.14967089   0.95173407    1.2694517   0.80485912   -1.2345679            1    2.7957781    3.9472074    4.0037067   0.43642021 0.0077374183 -0.084351397 0.0071284537    2.6204041    2.6677484   0.63626298         0.05    1.9235678          0.5   0.10604383    4.7150315    2.5626357    29.733488 -0.021889172  -0.18723885 -0.011627398   0.14094421  -0.35816559    1.7817876 
 4958000     4.908484    1.4337173    3.4747667  -0.15364473   0.95593757    1.3372356   0.77963466   -1.2345679            1    2.6663211    3.8902577    3.9036327   0.20507282 -0.0077329608  -0.01069603 0.0027698387    2.4964433    2.5314551   0.63016354         0.05     1.926871          0.5   0.10502726    4.7606689    2.5524227    29.733488 0.0040984227  -0.14981726 0.0024841335   0.16192886   -1.8375135   -1.2653529 
 4959000    4.9707102    1.4464614    3.5242487  -0.15168589   0.96443479    1.3256276   0.79743938   -1.2345679            1    2.7508291    3.9093618    3.9471171   0.39600844 -0.015688464 -0.016733002 0.0010796663    2.5770718    2.6171339   0.63774681         0.05     1.956514          0.5   0.10629113    4.7040612    2.5382491    29.733488 -0.019789983  -0.23278456 0.0068102359   0.20820668   0.25455784    1.1091423 
 4960000    4.9384073    1.4418021    3.4966052  -0.16274736   0.96132817    1.3368439   0.78770271   -1.2345679            1    2.6789837     3.841212    3.9056773   0.29006188 -0.013549452  0.061453169  0.042379212     2.507348    2.5441573   0.64039858         0.05    1.9190137          0.5    0.1067331    4.6845825    2.5491289    29.733488 -0.0028096453   -0.1800267 0.0027248329    0.1886174  -0.60869197    1.2818988 
 4961000    4.9362648    1.4368464    3.4994184  -0.15877416   0.95802394    1.3030385   0.79851558   -1.2345679            1    2.6332617    3.8810081    3.8592671   0.15951003 0.0095677008   0.10733105 -0.003882764    2.4592699    2.5018447   0.63291129         0.05     1.911075          0.5   0.10548521    4.7400008    2.5282671    29.733488   0.00159121  -0.18349325  0.013852219   0.21010901   -1.1425801    2.6498937 
 4962000     4.962319    1.4314123    3.5309068  -0.15842991    0.9544007    1.2993813   0.79490736   -1.2345679            1    2.6767061    3.8714977    3.8841652   0.27445544 -0.0077182559 -0.044179155 -0.0095252173    2.5035005    2.5456579   0.64342069         0.05     1.943946          0.5   0.10723678    4.6625794    2.5720361    29.733488 -0.008536047  -0.22675535 0.0048405138   0.21450566   -0.7472477   0.84612695 
 4963000    4.9891447    1.4584194    3.5307253  -0.14425266   0.97240781    1.3113488    0.8157134   -1.2345679            1    2.8196288    3.9660366    4.0083956   0.48445425 -0.006954396 -0.064024082 -0.077397044    2.6418897    2.6873736   0.64388213         0.05    1.9489995          0.5   0.10731369    4.6592378    2.5549263    29.733488 0.0054361715  -0.17551971 0.0075936311   0.22943968    2.0604734    2.6115255 
 4964000    4.9762364    1.4585898    3.5176467  -0.15408373   0.97252141    1.3365838   0.80419937   -1.2345679            1    2.6964713    3.8470934    3.9343998   0.30792084 -0.019577236  -0.13004743 -0.0018465445    2.5212411    2.5616711   0.63790249         0.05     1.999942          0.5   0.10631708    4.7029132    2.5712262    29.733488 -0.0058845006  -0.20771213 -0.017285805   0.21543701   -1.0764195    2.2707728 
 4965000    4.9884843    1.4467901    3.5416942  -0.14595526   0.96465394    1.2762656   0.82060767   -1.2345679            1     2.650959    3.8452695    3.8933584   0.21424922 0.0040530644  -0.13768703 -0.0028554814    2.4721535    2.5222422   0.62393759         0.05    1.9835185          0.5    0.1039896    4.8081732    2.5511712    29.733488 -0.020644092  -0.20633437  0.012996372   0.19994281    1.6780796    -2.483944 
 4966000    4.9756109    1.4619843    3.5136266  -0.15817448   0.97478473    1.3522877   0.80024205   -1.2345679            1    2.6633335    3.8349475    3.8744446   0.28060835  0.011782087  -0.16015597 -0.036025085    2.4889655    2.5269495   0.63993551         0.05    1.9987824          0.5   0.10665592    4.6879724    2.5478254    29.733488 0.0082718484  -0.26859837 -0.0017943439   0.17588162   0.94862444    1.4767285 
 4967000    4.9665126    1.4195462    3.5469664  -0.14980015   0.94648894    1.2684351   0.79765577   -1.2345679            1    2.7454621    3.9233969    3.9465041   0.36648524 -0.030327535 -0.058898312 0.0040225934    2.5716576     2.617535   0.64327631         0.05      1.92818          0.5   0.10721272    4.6636258    2.5504017    29.733488 -0.0083700117  -0.20499088  0.015010606   0.17516513    1.1529105    3.3358024 
 4968000     4.947545    1.4470334    3.5005116  -0.14771343   0.96481616    1.3026903   0.80861409   -1.2345679            1    2.8558108    4.0320203    4.0126938   0.52271825   0.00277852 -0.057046512 -0.032888057    2.6796186    2.7244289   0.63765458         0.05    1.9527444          0.5   0.10627576    4.7047415    2.5582888    29.733488 -0.0081552122  -0.16123742 -0.0017757387   0.21507788  -0.84981197     1.286975 
 4969000    4.9243633    1.4432535    3.4811098  -0.16322464   0.96229588    1.2960469   0.80800175   -1.2345679            1    2.8730576    4.0080215    4.0503631   0.56078821 -0.0014459295 0.0078988157  0.013668197    2.6969988    2.7423457   0.64221759         0.05      1.92546          0.5   0.10703627    4.6713139    2.5451084    29.733488 -0.0087333749  -0.18797215 -0.0091660582   0.19122871  -0.45601003    1.4644906 
 4970000    4.9316543    1.4284517    3.5032026  -0.15799786   0.95242671     1.261598   0.80950765   -1.2345679            1    2.7683813    3.9433043    3.9609827   0.40085704 0.0044771431  0.037817814 -0.062939114    2.5919944    2.6411438   0.63411399         0.05     1.925798          0.5   0.10568567    4.7310106    2.5775363    29.733488 0.0030775505   -0.1430378 0.0064063031   0.16786777  -0.34310462    2.5687857 
 4971000    4.9309518    1.4311286    3.4998232  -0.15335134   0.95421157    1.2774439   0.80478457   -1.2345679            1    2.5874269    3.7920326    3.8268344   0.14341373 -0.0091291185   0.21916649 -0.012652558    2.4120691    2.4585912     0.633887         0.05    1.9223209          0.5   0.10564783    4.7327047    2.5476022    29.733488 -0.010654146  -0.18853456 -0.0032298909   0.17413397    -1.880587   -1.1115688 
 4972000    4.9401276    1.4588876    3.4812401  -0.16192722   0.97271996    1.2981337   0.82228686   -1.2345679            1    2.8392763     3.993558     4.024995   0.49927582 -0.019780812   0.25586949 -0.023492383    2.6601049    2.7083539   0.63737299         0.05    1.9765319          0.5   0.10622883    4.7068201    2.5430736    29.733488 -0.014311806  -0.17027724 -0.011625009   0.20871789   -2.0525159    2.3466991 
 4973000    4.9110643    1.4227427    3.4883216  -0.17011903   0.94862025    1.2807292   0.79508353   -1.2345679            1    2.5175088    3.7531689    3.7831987    0.0161588 -0.012087656   0.11206882 -0.015576472    2.3442648    2.3883417   0.65035952         0.05    1.9818931          0.5   0.10839325    4.6128333    2.5499777    29.733488 -0.0087591802  -0.21175947 -0.011827684   0.17956214   -2.2489402   -1.4052382 
 4974000    4.9357528    1.4132842    3.5224686  -0.16069834   0.94231371    1.2650407    0.7931183   -1.2345679            1    2.8270081    3.9656367    4.0007186   0.51466911 -0.00054402578   0.16940791 -0.015591102    2.6541924    2.6994233   0.64799859         0.05    1.9660242          0.5   0.10799977    4.6296397    2.5799578    29.733488 -0.016235758  -0.22341287 -0.0040275417   0.15305171    -2.227341    3.4677767 
 4975000    4.9440457     1.441023    3.5030226    -0.154523   0.96080872    1.2789318   0.81374784   -1.2345679            1    2.8856393    4.0267491    4.0383604   0.59180824 -0.0077938409   0.10035643 -0.016343638    2.7083284    2.7566535   0.63847985         0.05     1.952809          0.5   0.10641331    4.6986604    2.5333685    29.733488 0.0099910632  -0.19973674 -0.0021155968   0.19135991   -1.8734073    3.4220625 
 4976000    4.9230533    1.4374205    3.4856329  -0.15084615   0.95840668    1.2893316   0.80541991   -1.2345679            1    2.6575749    3.8858969    3.8800914   0.20673623  0.010632931  0.041699207  0.011562843    2.4820787    2.5275402   0.63430048         0.05    1.9556267          0.5   0.10571675    4.7296196    2.5389727    29.733488 -0.00038035584  -0.18309208 -0.0062810269   0.21471867  -0.40096793    1.4516672 
 4977000    4.9359151    1.4291569    3.5067583  -0.15747009   0.95289688    1.2734113   0.80472764   -1.2345679            1    2.6784056    3.8767652    3.8946059   0.26384568  -0.01600225  0.017304438  0.014743058    2.5030602    2.5499766   0.64818265         0.05    1.9790039          0.5   0.10803044    4.6283251    2.5629883    29.733488  0.012658572  -0.14315219 0.0014895418   0.20306323   -1.7231962    -2.951353 
 4978000    4.9367253    1.4211442    3.5155811  -0.14736035   0.94755438    1.2821314   0.79287509   -1.2345679            1    2.8702178    4.0013973    4.0386563   0.57059972 0.0076423594  -0.04070607 -0.0020890401     2.697455    2.7409093   0.63883195         0.05    1.9699844          0.5   0.10647199    4.6960707    2.5374552    29.733488 -0.0061159863  -0.17982548 -0.0024668597   0.17599393  -0.94104527  -0.83305491 
 4979000    4.9360689    1.4235849    3.5124839  -0.15389224   0.94918177     1.280812   0.79586676   -1.2345679            1    2.5002899    3.7211917     3.797279 -0.017601132 -0.0098788936 -0.0086908927  0.037844542    2.3268752    2.3711145    0.6307765         0.05    1.9083594          0.5   0.10512942    4.7560428    2.5321557    29.733488  0.011002093  -0.16155863 -0.012279389   0.20387307    1.3492032    1.0285526 
 4980000    4.9376861    1.4327922    3.5048939  -0.15109212   0.95532075    1.2852925   0.80277459   -1.2345679            1    2.8760506    3.9963271    4.0417787   0.59004602 0.0064002207 -0.084303371 0.0039980998    2.7011308    2.7464233   0.62657921         0.05     1.941191          0.5   0.10442987    4.7879022    2.5264264    29.733488 -0.0091788646  -0.17042994 0.0088349994   0.18976665    2.5878666     4.008743 
 4981000    4.9481005    1.4356705      3.51243  -0.16114385   0.95723987    1.2932073    0.8019189   -1.2345679            1    2.7241539    3.8942273    3.9116663   0.36656801 -0.00092421894 -0.062065059  0.035880882    2.5494205    2.5937284    0.6472999         0.05    1.9858308          0.5   0.10788332    4.6346369    2.5470967    29.733488  -0.01039865  -0.19555658 -0.0053126857   0.17373878  0.071677832   0.59416447 
 4982000    4.9057883    1.4395348    3.4662534  -0.16617412   0.95981644      1.29326   0.80566417   -1.2345679            1    2.6111464    3.7906188    3.8678157   0.17500466 -0.0096057714  -0.16845396  -0.03930126    2.4355969    2.4807155   0.64342041         0.05    1.9752536          0.5   0.10723673    4.6625814    2.5392242    29.733488 0.0096737008  -0.24421741 0.0072506088   0.20624135   0.40026601     2.776435 
 4983000    4.9059948    1.4089991    3.4969957   -0.1529238   0.93945661    1.2644551   0.78920925   -1.2345679            1    2.7198029    3.9191157    3.9162262   0.32406676 -0.0033775527  -0.16801492  0.015311343    2.5478389    2.5922771   0.62883761         0.05    1.9043764          0.5   0.10480627     4.770707    2.5489308    29.733488  0.017343155  -0.13568044 0.0046543865   0.18497183    1.4395352    5.8319494 
 4984000    4.9409773    1.4415151    3.4994622  -0.16178999   0.96113681     1.270715   0.81803107   -1.2345679            1    2.7687294    3.9201044    3.9721412   0.41394265 0.0029763914  0.021058725 -0.010233819    2.5904853    2.6405723   0.63898475         0.05    1.9282728          0.5   0.10649746    4.6949477    2.5571414    29.733488 -0.0085343912  -0.23283401  0.010993342    0.1906134   0.40898369  -0.98714919 
 4985000    4.9403315    1.4304717    3.5098598  -0.16225322   0.95377355    1.2786414   0.80358946   -1.2345679            1    2.7666665    3.9174245    3.9604687   0.42210619 -0.016024846  -0.12782613 -0.033146798    2.5915691      2.63771   0.64424286         0.05    2.0066921          0.5   0.10737381     4.656629    2.5670769    29.733488 0.0027640976    -0.182043  0.014536505   0.23633964   0.40909456    -1.713223 
 4986000    4.9485155    1.4215483    3.5269672  -0.14630842   0.94782385    1.2909407   0.78919189   -1.2345679            1    2.6337161    3.8605729    3.8810452   0.15953032  0.014415368  -0.13932124  -0.06643497    2.4617559    2.5035192    0.6496287         0.05    1.9889717          0.5   0.10827145    4.6180225    2.5590277    29.733488 -0.010609415  -0.19154976 -0.017592685   0.18026367   0.18725744  -0.68884295 
 4987000    4.9533111    1.4404771     3.512834  -0.15830702   0.96044469     1.304096    0.8015678   -1.2345679            1    2.7493223    3.8982282    3.9565756   0.39316291  0.015167471  -0.23292732  -0.03175768    2.5746654    2.6177986   0.64529093         0.05    2.0052105          0.5   0.10754849    4.6490658    2.5836134    29.733488  0.016559201  -0.19046583  0.001919665    0.1705276    1.2184227   0.65831503 
 4988000    4.9113999    1.4128083    3.4985916  -0.15611334    0.9419964    1.2905609   0.78084184   -1.2345679            1    2.9023643     4.041539    4.0570812   0.60847269 -0.014138816  -0.14291569  0.023382704    2.7322235    2.7722057   0.62815189         0.05      1.97366          0.5   0.10469198     4.775915    2.5423715    29.733488 -0.00033144218  -0.15915444  0.011192489   0.20485679     1.276393    1.1642251 
 4989000     4.949284    1.4291237    3.5201604  -0.16010347   0.95287474    1.3067472   0.78926541   -1.2345679            1    2.6874634    3.8465966     3.910191   0.30560265 -0.0066643801  -0.11403926  0.022956028    2.5154872    2.5556723   0.63951929         0.05    1.9742755          0.5   0.10658655    4.6910235    2.5454147    29.733488 -0.012384706  -0.17406901  0.015128186   0.19105677    1.5778739    1.6759615 
 4990000    4.9738169    1.4516848    3.5221321  -0.16792042   0.96791746    1.3014429   0.81372885   -1.2345679            1    2.5840312    3.7644134     3.833174   0.15450636 -0.0073375178 -0.027460619  0.026038573    2.4067246    2.4527751   0.63976902         0.05    1.9872373          0.5   0.10662817    4.6891923    2.5524117    29.733488 0.0086619561   -0.1589434 0.0043035363   0.15451632    2.8721183    2.0700897 
 4991000    4.9489075    1.4294309    3.5194767  -0.15145412   0.95307958    1.3005377   0.79243921   -1.2345679            1    2.8043508    3.9679692    3.9806094   0.46447384  0.005544895  0.051775667 0.0012654732     2.631683     2.673186   0.63698422         0.05    2.0090647          0.5   0.10616404    4.7096928    2.5672714    29.733488 -0.002060847  -0.15805554  0.014201819   0.20351758    1.7837938   0.55504495 
 4992000    4.9338613    1.4325677    3.5012937  -0.16545319   0.95517106    1.2927047   0.79912476   -1.2345679            1    2.6923495    3.8642153    3.8980564   0.31477697 -0.008586419   0.14522137 -0.047984693     2.518225    2.5619747   0.63569035         0.05    1.9491302          0.5   0.10594839    4.7192788    2.5429746    29.733488  0.012976995  -0.17705128 0.0080799341    0.1948991  -0.42005308     3.540656 
 4993000    4.9620257    1.4524955    3.5095302  -0.15287235   0.96845805    1.3251617   0.80354129   -1.2345679            1    2.5634145    3.8047992    3.7973756  0.088068802 -0.0078710561 -0.046792746 -0.0099789119    2.3883277    2.4297663    0.6468515         0.05    1.9593688          0.5   0.10780858    4.6378496    2.5606677    29.733488 0.0027162661  -0.19142455 0.0024417052   0.19936255  -0.91291871   0.98535976 
 4994000    4.9439893    1.4408084    3.5031809  -0.15693031   0.96066559    1.2828094   0.81174365   -1.2345679            1    2.7867457    3.9464532    4.0058791   0.40790476  0.013436555   0.07286157  0.028344254    2.6098716    2.6573689   0.63848432         0.05    1.9454828          0.5   0.10641405    4.6986275    2.5432548    29.733488 -0.0028759781  -0.19053683 0.0058752809   0.20127349   -1.1271186 -0.032166157 
 4995000    4.9480424    1.4281844     3.519858  -0.14936494   0.95224851     1.284468   0.79866132   -1.2345679            1    2.6638907    3.8751029    3.8801296   0.23643955 -0.0081429944  0.056529206 -0.033588388    2.4898671    2.5343465    0.6308104         0.05    1.9580791          0.5   0.10513507    4.7557871    2.5553699    29.733488 -0.0016372223  -0.17940966 -0.0054421199   0.17571982   0.79856495   -3.0148083 
 4996000    4.9605003    1.4427938    3.5177065  -0.15579917   0.96198937    1.2763951   0.81664934   -1.2345679            1    2.8018305    3.9926657    3.9703522   0.44247343 -0.0032089866 -0.0053671536 -0.035679376    2.6238874    2.6731005   0.64307957         0.05    1.9609485          0.5   0.10717993    4.6650525    2.5438074    29.733488 0.0067896857  -0.17483332 -9.2088292e-05   0.19189882   -3.5175565   0.97092339 
 4997000    4.9137805    1.4252773    3.4885033  -0.16250656   0.95031014    1.2960906   0.79044576   -1.2345679            1    2.7983143    3.9590695    3.9953069   0.44056647 0.0061325601 -0.033795356 -0.032033971    2.6260809     2.667598   0.64363341         0.05    1.9939772          0.5   0.10727224    4.6610383    2.5445718    29.733488  0.015091758  -0.17758579 -0.010639457   0.15249394    1.0563366    2.9109833 
 4998000    4.9604542    1.4367956    3.5236586  -0.14627434   0.95799004     1.278768   0.80969981   -1.2345679            1    2.6566497    3.8333418     3.871644   0.26496321 -0.019366981 -0.0001971431  0.030105949    2.4802209    2.5276804   0.63065567         0.05     2.006563          0.5   0.10510928    4.7569539    2.5475641    29.733488 -0.0027216247   -0.2105607 0.0017171262   0.15896703   0.50134532    3.3599075 
 4999000    4.9307498    1.4332229    3.4975269  -0.15786491   0.95560795    1.2678081   0.81128757   -1.2345679            1    2.6131551    3.7984247    3.8435905   0.19745001 0.0037897059  -0.02213383 -0.032500801    2.4363803    2.4852912   0.64382667         0.05    2.0011602          0.5   0.10730444    4.6596392    2.5599843    29.733488 -0.0082383527  -0.20827231  0.017501593   0.24526685  -0.62912608   -1.2812836 
 5000000    4.9529127    1.4645008    3.4884119  -0.15639193   0.97646261    1.3273201   0.81425332   -1.2345679            1    2.7727357    3.9256281    3.9723164    0.4202626 -0.028044229  -0.01947938  0.015430727    2.5953148    2.6388698    0.6346158         0.05    1.9767243          0.5    0.1057693    4.7272697     2.547271    29.733488  0.016569875  -0.19140334 0.0023034062   0.21147147    1.1351348  -0.22448496 
Loop time of 2339.55 on 32 procs for 4000000 steps with 7584 atoms

Performance: 738603.252 tau/day, 1709.730 timesteps/s
100.0% CPU use with 32 MPI tasks x no OpenMP threads

MPI task timing breakdown:
Section |  min time  |  avg time  |  max time  |%varavg| %total
---------------------------------------------------------------
Pair    | 0.41218    | 35.354     | 190.18     |1039.1 |  1.51
Bond    | 1.1683     | 130.65     | 516.32     |1645.6 |  5.58
Neigh   | 472.18     | 504.71     | 537.26     | 117.2 | 21.57
Comm    | 28.21      | 164.51     | 544.7      |1298.4 |  7.03
Output  | 3.0721     | 3.1473     | 5.1657     |  20.4 |  0.13
Modify  | 854.74     | 1312.8     | 1552.5     | 831.8 | 56.11
Other   |            | 188.4      |            |       |  8.05

Nlocal:    237 ave 809 max 0 min
Histogram: 20 0 0 0 0 0 5 3 0 4
Nghost:    300.25 ave 1019 max 0 min
Histogram: 16 0 4 0 1 3 4 0 0 4
Neighs:    266.219 ave 1712 max 0 min
Histogram: 24 0 1 1 1 1 1 1 0 2

Total # of neighbors = 8519
Ave neighs/atom = 1.12329
Ave special neighs/atom = 7.46835
Neighbor list builds = 604183
Dangerous builds = 0
