9376
Atoms. Timestep: 4000000
1 0.075 3.55271e-15 10.6126
1 0.868701 29.2063 10.6126
1 0.879177 29.9351 9.77969
1 0.115155 29.154 9.78089
1 1.6624 3.55271e-15 10.6126
1 2.4561 29.2063 10.6126
1 2.46472 29.9416 9.79196
1 1.6645 29.1994 9.82993
1 3.2498 3.55271e-15 10.6126
1 4.0435 29.2063 10.6126
1 4.06762 29.9493 9.77047
1 3.26536 29.2082 9.78082
1 4.8372 3.55271e-15 10.6126
1 5.6309 29.2063 10.6126
1 5.60771 29.9547 9.79596
1 4.83045 29.1671 9.82797
1 6.4246 3.55271e-15 10.6126
1 7.2183 29.2063 10.6126
1 7.22796 29.9276 9.7708
1 6.44951 29.1819 9.82467
1 8.01201 3.55271e-15 10.6126
1 8.80571 29.2063 10.6126
1 8.82962 29.9019 9.7914
1 8.0255 29.1875 9.81951
1 9.59941 3.55271e-15 10.6126
1 10.3931 29.2063 10.6126
1 10.3743 29.9143 9.76722
1 9.59719 29.1565 9.83297
1 11.1868 3.55271e-15 10.6126
1 11.9805 29.2063 10.6126
1 11.9922 29.9184 9.79192
1 11.2114 29.1814 9.82184
1 12.7742 3.55271e-15 10.6126
1 13.5679 29.2063 10.6126
1 13.5696 29.9279 9.78007
1 12.78 29.1614 9.80351
1 14.3616 3.55271e-15 10.6126
1 15.1553 29.2063 10.6126
1 15.1165 29.9362 9.77308
1 14.3644 29.1744 9.82663
1 15.949 3.55271e-15 10.6126
1 16.7427 29.2063 10.6126
1 16.7376 29.9445 9.78263
1 15.9484 29.2122 9.81176
1 17.5364 3.55271e-15 10.6126
1 18.3301 29.2063 10.6126
1 18.3084 29.9158 9.78546
1 17.5195 29.1411 9.80348
1 19.1238 3.55271e-15 10.6126
1 19.9175 29.2063 10.6126
1 19.9043 29.9349 9.78294
1 19.1329 29.1721 9.80102
1 20.7112 3.55271e-15 10.6126
1 21.5049 29.2063 10.6126
1 21.4827 29.9241 9.79516
1 20.688 29.1673 9.79805
1 22.2986 3.55271e-15 10.6126
1 23.0923 29.2063 10.6126
1 23.0909 29.9208 9.78803
1 22.2997 29.1947 9.83242
1 23.886 3.55271e-15 10.6126
1 24.6797 29.2063 10.6126
1 24.6866 29.9305 9.79408
1 23.8725 29.1551 9.78712
1 25.4734 3.55271e-15 10.6126
1 26.2671 29.2063 10.6126
1 26.2792 29.9385 9.78577
1 25.4603 29.1951 9.81147
1 27.0608 3.55271e-15 10.6126
1 27.8545 29.2063 10.6126
1 27.8613 29.9318 9.79897
1 27.05 29.1543 9.80475
1 28.6482 3.55271e-15 10.6126
1 29.4419 29.2063 10.6126
1 29.3886 29.941 9.76212
1 28.6172 29.1678 9.82076
1 0.075 28.4126 10.6126
1 0.868701 27.6189 10.6126
1 0.905837 28.404 9.83869
1 0.139214 27.6028 9.77021
1 1.6624 28.4126 10.6126
1 2.4561 27.6189 10.6126
1 2.41725 28.4235 9.82049
1 1.67527 27.6421 9.83338
1 3.2498 28.4126 10.6126
1 4.0435 27.6189 10.6126
1 4.01561 28.3833 9.82136
1 3.24096 27.6337 9.8477
1 4.8372 28.4126 10.6126
1 5.6309 27.6189 10.6126
1 5.64227 28.4017 9.81772
1 4.82739 27.6261 9.83512
1 6.4246 28.4126 10.6126
1 7.2183 27.6189 10.6126
1 7.22732 28.3887 9.81449
1 6.42267 27.6267 9.81208
1 8.01201 28.4126 10.6126
1 8.80571 27.6189 10.6126
1 8.80771 28.388 9.80671
1 8.03876 27.6197 9.80672
1 9.59941 28.4126 10.6126
1 10.3931 27.6189 10.6126
1 10.4156 28.4146 9.82375
1 9.61496 27.6069 9.80716
1 11.1868 28.4126 10.6126
1 11.9805 27.6189 10.6126
1 11.9831 28.362 9.81522
1 11.1863 27.6016 9.80827
1 12.7742 28.4126 10.6126
1 13.5679 27.6189 10.6126
1 13.5637 28.3896 9.80672
1 12.7962 27.5769 9.82866
1 14.3616 28.4126 10.6126
1 15.1553 27.6189 10.6126
1 15.1419 28.4092 9.81909
1 14.3506 27.6231 9.83017
1 15.949 28.4126 10.6126
1 16.7427 27.6189 10.6126
1 16.734 28.3926 9.80767
1 15.9547 27.602 9.82366
1 17.5364 28.4126 10.6126
1 18.3301 27.6189 10.6126
1 18.3207 28.3666 9.83163
1 17.5243 27.6136 9.80287
1 19.1238 28.4126 10.6126
1 19.9175 27.6189 10.6126
1 19.9105 28.3824 9.83354
1 19.1283 27.6085 9.82806
1 20.7112 28.4126 10.6126
1 21.5049 27.6189 10.6126
1 21.4884 28.4048 9.81368
1 20.7011 27.6217 9.78787
1 22.2986 28.4126 10.6126
1 23.0923 27.6189 10.6126
1 23.0789 28.3818 9.81858
1 22.2627 27.5765 9.80365
1 23.886 28.4126 10.6126
1 24.6797 27.6189 10.6126
1 24.6655 28.395 9.80282
1 23.9068 27.6147 9.80591
1 25.4734 28.4126 10.6126
1 26.2671 27.6189 10.6126
1 26.22 28.3931 9.82296
1 25.4384 27.6077 9.80441
1 27.0608 28.4126 10.6126
1 27.8545 27.6189 10.6126
1 27.851 28.3828 9.83418
1 27.059 27.6312 9.79887
1 28.6482 28.4126 10.6126
1 29.4419 27.6189 10.6126
1 29.3633 28.3787 9.77676
1 28.6082 27.5962 9.84856
1 0.075 26.8252 10.6126
1 0.868701 26.0315 10.6126
1 0.912701 26.8087 9.81043
1 0.141413 26.0213 9.81612
1 1.6624 26.8252 10.6126
1 2.4561 26.0315 10.6126
1 2.46584 26.7874 9.79878
1 1.67551 26.0048 9.80142
1 3.2498 26.8252 10.6126
1 4.0435 26.0315 10.6126
1 4.0397 26.8184 9.81832
1 3.27543 26.0068 9.81049
1 4.8372 26.8252 10.6126
1 5.6309 26.0315 10.6126
1 5.62758 26.8255 9.81578
1 4.82374 26.0368 9.80531
1 6.4246 26.8252 10.6126
1 7.2183 26.0315 10.6126
1 7.23566 26.8385 9.84804
1 6.40896 26.02 9.82373
1 8.01201 26.8252 10.6126
1 8.80571 26.0315 10.6126
1 8.82473 26.8224 9.83372
1 8.01683 26.0354 9.83598
1 9.59941 26.8252 10.6126
1 10.3931 26.0315 10.6126
1 10.3923 26.8161 9.79981
1 9.58984 26.0108 9.80981
1 11.1868 26.8252 10.6126
1 11.9805 26.0315 10.6126
1 11.9928 26.819 9.83899
1 11.1792 26.0302 9.81466
1 12.7742 26.8252 10.6126
1 13.5679 26.0315 10.6126
1 13.5717 26.8275 9.82312
1 12.758 26.035 9.83412
1 14.3616 26.8252 10.6126
1 15.1553 26.0315 10.6126
1 15.1442 26.846 9.82751
1 14.3498 26.0533 9.79714
1 15.949 26.8252 10.6126
1 16.7427 26.0315 10.6126
1 16.7508 26.7983 9.84366
1 15.9338 26.062 9.82288
1 17.5364 26.8252 10.6126
1 18.3301 26.0315 10.6126
1 18.3425 26.7928 9.83532
1 17.5305 26.0107 9.81416
1 19.1238 26.8252 10.6126
1 19.9175 26.0315 10.6126
1 19.9192 26.813 9.80289
1 19.1235 26.0395 9.8216
1 20.7112 26.8252 10.6126
1 21.5049 26.0315 10.6126
1 21.4967 26.8099 9.81791
1 20.7192 26.0314 9.79732
1 22.2986 26.8252 10.6126
1 23.0923 26.0315 10.6126
1 23.0871 26.815 9.80441
1 22.3226 26.0544 9.79327
1 23.886 26.8252 10.6126
1 24.6797 26.0315 10.6126
1 24.666 26.797 9.805
1 23.872 26.0164 9.81762
1 25.4734 26.8252 10.6126
1 26.2671 26.0315 10.6126
1 26.2549 26.8447 9.81792
1 25.4869 26.0174 9.82848
1 27.0608 26.8252 10.6126
1 27.8545 26.0315 10.6126
1 27.8325 26.8334 9.81031
1 27.051 26.0367 9.82193
1 28.6482 26.8252 10.6126
1 29.4419 26.0315 10.6126
1 29.3748 26.8139 9.77852
1 28.6077 26.0463 9.80138
1 0.075 25.2378 10.6126
1 0.868701 24.4441 10.6126
1 0.902173 25.2304 9.79945
1 0.157844 24.4586 9.77631
1 1.6624 25.2378 10.6126
1 2.4561 24.4441 10.6126
1 2.48895 25.2196 9.80986
1 1.68074 24.4305 9.81555
1 3.2498 25.2378 10.6126
1 4.0435 24.4441 10.6126
1 4.06078 25.2125 9.83021
1 3.26951 24.4509 9.82843
1 4.8372 25.2378 10.6126
1 5.6309 24.4441 10.6126
1 5.6149 25.2363 9.82552
1 4.85201 24.4102 9.80737
1 6.4246 25.2378 10.6126
1 7.2183 24.4441 10.6126
1 7.21866 25.2361 9.81453
1 6.4327 24.4501 9.81419
1 8.01201 25.2378 10.6126
1 8.80571 24.4441 10.6126
1 8.79774 25.2239 9.81413
1 8.01396 24.4529 9.82982
1 9.59941 25.2378 10.6126
1 10.3931 24.4441 10.6126
1 10.3866 25.2546 9.79211
1 9.61308 24.4608 9.79096
1 11.1868 25.2378 10.6126
1 11.9805 24.4441 10.6126
1 11.9991 25.2431 9.83646
1 11.2021 24.4388 9.81986
1 12.7742 25.2378 10.6126
1 13.5679 24.4441 10.6126
1 13.5668 25.2601 9.81802
1 12.7794 24.47 9.80222
1 14.3616 25.2378 10.6126
1 15.1553 24.4441 10.6126
1 15.1278 25.2535 9.81378
1 14.3611 24.4522 9.81965
1 15.949 25.2378 10.6126
1 16.7427 24.4441 10.6126
1 16.7527 25.2295 9.80665
1 15.9485 24.436 9.81065
1 17.5364 25.2378 10.6126
1 18.3301 24.4441 10.6126
1 18.3435 25.2447 9.78902
1 17.5317 24.4389 9.81879
1 19.1238 25.2378 10.6126
1 19.9175 24.4441 10.6126
1 19.8979 25.2006 9.82049
1 19.1264 24.4477 9.83727
1 20.7112 25.2378 10.6126
1 21.5049 24.4441 10.6126
1 21.4946 25.2371 9.80759
1 20.7099 24.4631 9.80507
1 22.2986 25.2378 10.6126
1 23.0923 24.4441 10.6126
1 23.0968 25.2363 9.8037
1 22.3068 24.4571 9.84055
1 23.886 25.2378 10.6126
1 24.6797 24.4441 10.6126
1 24.6708 25.2207 9.82954
1 23.8756 24.4553 9.80022
1 25.4734 25.2378 10.6126
1 26.2671 24.4441 10.6126
1 26.251 25.2448 9.84075
1 25.4513 24.4417 9.83389
1 27.0608 25.2378 10.6126
1 27.8545 24.4441 10.6126
1 27.8539 25.2054 9.79227
1 27.0539 24.4514 9.83155
1 28.6482 25.2378 10.6126
1 29.4419 24.4441 10.6126
1 29.3661 25.2216 9.78987
1 28.6208 24.4334 9.80088
1 0.075 23.6504 10.6126
1 0.868701 22.8567 10.6126
1 0.898251 23.6318 9.79785
1 0.147448 22.8616 9.80066
1 1.6624 23.6504 10.6126
1 2.4561 22.8567 10.6126
1 2.46281 23.6358 9.82894
1 1.65 22.8592 9.81599
1 3.2498 23.6504 10.6126
1 4.0435 22.8567 10.6126
1 4.05614 23.6315 9.81005
1 3.24929 22.829 9.80495
1 4.8372 23.6504 10.6126
1 5.6309 22.8567 10.6126
1 5.65423 23.6513 9.81373
1 4.85162 22.8738 9.80472
1 6.4246 23.6504 10.6126
1 7.2183 22.8567 10.6126
1 7.20892 23.6868 9.81756
1 6.44288 22.8604 9.84155
1 8.01201 23.6504 10.6126
1 8.80571 22.8567 10.6126
1 8.81797 23.6483 9.82497
1 8.00664 22.8918 9.83148
1 9.59941 23.6504 10.6126
1 10.3931 22.8567 10.6126
1 10.3741 23.675 9.79771
1 9.60239 22.855 9.8267
1 11.1868 23.6504 10.6126
1 11.9805 22.8567 10.6126
1 11.9683 23.641 9.83701
1 11.176 22.863 9.80585
1 12.7742 23.6504 10.6126
1 13.5679 22.8567 10.6126
1 13.5593 23.6396 9.81718
1 12.7547 22.8818 9.80918
1 14.3616 23.6504 10.6126
1 15.1553 22.8567 10.6126
1 15.1524 23.6517 9.82933
1 14.3713 22.8657 9.80624
1 15.949 23.6504 10.6126
1 16.7427 22.8567 10.6126
1 16.741 23.6191 9.80979
1 15.9562 22.8249 9.81195
1 17.5364 23.6504 10.6126
1 18.3301 22.8567 10.6126
1 18.3265 23.6383 9.81981
1 17.5332 22.8485 9.83439
1 19.1238 23.6504 10.6126
1 19.9175 22.8567 10.6126
1 19.9454 23.6453 9.82628
1 19.13 22.8462 9.82228
1 20.7112 23.6504 10.6126
1 21.5049 22.8567 10.6126
1 21.5102 23.6348 9.81945
1 20.7046 22.8722 9.82119
1 22.2986 23.6504 10.6126
1 23.0923 22.8567 10.6126
1 23.0907 23.6562 9.82083
1 22.2993 22.8871 9.80938
1 23.886 23.6504 10.6126
1 24.6797 22.8567 10.6126
1 24.6966 23.6535 9.82733
1 23.8906 22.8794 9.82379
1 25.4734 23.6504 10.6126
1 26.2671 22.8567 10.6126
1 26.2665 23.6497 9.82949
1 25.4732 22.8776 9.81443
1 27.0608 23.6504 10.6126
1 27.8545 22.8567 10.6126
1 27.8143 23.6456 9.84884
1 27.0344 22.8539 9.82655
1 28.6482 23.6504 10.6126
1 29.4419 22.8567 10.6126
1 29.3918 23.6373 9.8029
1 28.6039 22.8922 9.82711
1 0.075 22.063 10.6126
1 0.868701 21.2693 10.6126
1 0.862641 22.0857 9.80847
1 0.127787 21.2499 9.77451
1 1.6624 22.063 10.6126
1 2.4561 21.2693 10.6126
1 2.4317 22.0592 9.81336
1 1.68709 21.2969 9.80634
1 3.2498 22.063 10.6126
1 4.0435 21.2693 10.6126
1 4.03626 22.0736 9.81699
1 3.25364 21.3058 9.82211
1 4.8372 22.063 10.6126
1 5.6309 21.2693 10.6126
1 5.64461 22.0427 9.82723
1 4.84015 21.2578 9.81741
1 6.4246 22.063 10.6126
1 7.2183 21.2693 10.6126
1 7.22684 22.0409 9.83306
1 6.4202 21.2471 9.80064
1 8.01201 22.063 10.6126
1 8.80571 21.2693 10.6126
1 8.81577 22.0916 9.83515
1 7.99907 21.2627 9.82121
1 9.59941 22.063 10.6126
1 10.3931 21.2693 10.6126
1 10.3905 22.0466 9.81865
1 9.57664 21.2623 9.81498
1 11.1868 22.063 10.6126
1 11.9805 21.2693 10.6126
1 11.9844 22.0658 9.82166
1 11.194 21.2758 9.81476
1 12.7742 22.063 10.6126
1 13.5679 21.2693 10.6126
1 13.5392 22.056 9.80356
1 12.7905 21.2691 9.83245
1 14.3616 22.063 10.6126
1 15.1553 21.2693 10.6126
1 15.14 22.0613 9.81549
1 14.3526 21.262 9.79055
1 15.949 22.063 10.6126
1 16.7427 21.2693 10.6126
1 16.7532 22.0741 9.81385
1 15.9637 21.2531 9.80313
1 17.5364 22.063 10.6126
1 18.3301 21.2693 10.6126
1 18.3423 22.0647 9.81926
1 17.5417 21.2697 9.81748
1 19.1238 22.063 10.6126
1 19.9175 21.2693 10.6126
1 19.8763 22.0672 9.82511
1 19.125 21.267 9.81502
1 20.7112 22.063 10.6126
1 21.5049 21.2693 10.6126
1 21.5141 22.1045 9.83263
1 20.7146 21.3003 9.82778
1 22.2986 22.063 10.6126
1 23.0923 21.2693 10.6126
1 23.0927 22.0615 9.81953
1 22.2907 21.2727 9.8306
1 23.886 22.063 10.6126
1 24.6797 21.2693 10.6126
1 24.6777 22.0567 9.79219
1 23.8827 21.2895 9.77928
1 25.4734 22.063 10.6126
1 26.2671 21.2693 10.6126
1 26.2175 22.0504 9.82076
1 25.4562 21.2695 9.85848
1 27.0608 22.063 10.6126
1 27.8545 21.2693 10.6126
1 27.841 22.0674 9.7842
1 27.0456 21.265 9.81204
1 28.6482 22.063 10.6126
1 29.4419 21.2693 10.6126
1 29.3672 22.0593 9.78767
1 28.6159 21.274 9.81411
1 0.075 20.4756 10.6126
1 0.868701 19.6819 10.6126
1 0.911427 20.4913 9.81245
1 0.129332 19.6856 9.79563
1 1.6624 20.4756 10.6126
1 2.4561 19.6819 10.6126
1 2.48144 20.4812 9.81206
1 1.69963 19.6767 9.81722
1 3.2498 20.4756 10.6126
1 4.0435 19.6819 10.6126
1 4.02533 20.4727 9.82964
1 3.24304 19.6586 9.80848
1 4.8372 20.4756 10.6126
1 5.6309 19.6819 10.6126
1 5.60588 20.4756 9.82655
1 4.84149 19.6883 9.81459
1 6.4246 20.4756 10.6126
1 7.2183 19.6819 10.6126
1 7.22168 20.463 9.8304
1 6.38753 19.6861 9.8165
1 8.01201 20.4756 10.6126
1 8.80571 19.6819 10.6126
1 8.79679 20.4838 9.8288
1 8.01018 19.6854 9.81366
1 9.59941 20.4756 10.6126
1 10.3931 19.6819 10.6126
1 10.387 20.4779 9.80984
1 9.59269 19.7222 9.80614
1 11.1868 20.4756 10.6126
1 11.9805 19.6819 10.6126
1 11.9833 20.468 9.83003
1 11.2013 19.6853 9.81071
1 12.7742 20.4756 10.6126
1 13.5679 19.6819 10.6126
1 13.5712 20.4992 9.81738
1 12.7671 19.6939 9.82927
1 14.3616 20.4756 10.6126
1 15.1553 19.6819 10.6126
1 15.1345 20.4909 9.81064
1 14.3464 19.7092 9.81012
1 15.949 20.4756 10.6126
1 16.7427 19.6819 10.6126
1 16.7564 20.4702 9.82383
1 15.9611 19.6793 9.81174
1 17.5364 20.4756 10.6126
1 18.3301 19.6819 10.6126
1 18.3368 20.4708 9.83242
1 17.5321 19.6756 9.82337
1 19.1238 20.4756 10.6126
1 19.9175 19.6819 10.6126
1 19.9186 20.4731 9.81076
1 19.1395 19.6791 9.82124
1 20.7112 20.4756 10.6126
1 21.5049 19.6819 10.6126
1 21.5129 20.4619 9.81404
1 20.6958 19.677 9.80682
1 22.2986 20.4756 10.6126
1 23.0923 19.6819 10.6126
1 23.1038 20.4828 9.81537
1 22.2774 19.7004 9.81227
1 23.886 20.4756 10.6126
1 24.6797 19.6819 10.6126
1 24.6807 20.4768 9.83598
1 23.8871 19.6831 9.85576
1 25.4734 20.4756 10.6126
1 26.2671 19.6819 10.6126
1 26.2551 20.4672 9.83204
1 25.4791 19.6808 9.79986
1 27.0608 20.4756 10.6126
1 27.8545 19.6819 10.6126
1 27.8324 20.4557 9.80735
1 27.0144 19.6801 9.83299
1 28.6482 20.4756 10.6126
1 29.4419 19.6819 10.6126
1 29.3606 20.4726 9.77484
1 28.6222 19.6833 9.80793
1 0.075 18.8882 10.6126
1 0.868701 18.0945 10.6126
1 0.893448 18.8961 9.82781
1 0.147863 18.1078 9.76184
1 1.6624 18.8882 10.6126
1 2.4561 18.0945 10.6126
1 2.46874 18.8825 9.81406
1 1.67656 18.0594 9.80989
1 3.2498 18.8882 10.6126
1 4.0435 18.0945 10.6126
1 4.06636 18.9006 9.82652
1 3.2251 18.1195 9.82876
1 4.8372 18.8882 10.6126
1 5.6309 18.0945 10.6126
1 5.61682 18.8756 9.80533
1 4.85094 18.071 9.80971
1 6.4246 18.8882 10.6126
1 7.2183 18.0945 10.6126
1 7.23267 18.8925 9.81676
1 6.42829 18.1265 9.82191
1 8.01201 18.8882 10.6126
1 8.80571 18.0945 10.6126
1 8.82808 18.8981 9.80463
1 8.00425 18.1121 9.82977
1 9.59941 18.8882 10.6126
1 10.3931 18.0945 10.6126
1 10.3868 18.8937 9.81466
1 9.59456 18.0964 9.82648
1 11.1868 18.8882 10.6126
1 11.9805 18.0945 10.6126
1 11.988 18.8937 9.82757
1 11.1946 18.1152 9.82063
1 12.7742 18.8882 10.6126
1 13.5679 18.0945 10.6126
1 13.5685 18.8944 9.80677
1 12.7528 18.0857 9.83374
1 14.3616 18.8882 10.6126
1 15.1553 18.0945 10.6126
1 15.1434 18.8908 9.82764
1 14.3465 18.0952 9.82456
1 15.949 18.8882 10.6126
1 16.7427 18.0945 10.6126
1 16.7366 18.8665 9.82074
1 15.935 18.0972 9.82265
1 17.5364 18.8882 10.6126
1 18.3301 18.0945 10.6126
1 18.3001 18.8969 9.82741
1 17.5185 18.0789 9.80243
1 19.1238 18.8882 10.6126
1 19.9175 18.0945 10.6126
1 19.9057 18.874 9.80357
1 19.1416 18.1051 9.81711
1 20.7112 18.8882 10.6126
1 21.5049 18.0945 10.6126
1 21.4866 18.8787 9.82857
1 20.7064 18.0876 9.82182
1 22.2986 18.8882 10.6126
1 23.0923 18.0945 10.6126
1 23.0652 18.9033 9.84497
1 22.296 18.1069 9.7946
1 23.886 18.8882 10.6126
1 24.6797 18.0945 10.6126
1 24.6744 18.8888 9.79415
1 23.8851 18.0969 9.77893
1 25.4734 18.8882 10.6126
1 26.2671 18.0945 10.6126
1 26.2512 18.8744 9.85126
1 25.4669 18.1029 9.80759
1 27.0608 18.8882 10.6126
1 27.8545 18.0945 10.6126
1 27.8111 18.8877 9.81005
1 27.0465 18.0869 9.8167
1 28.6482 18.8882 10.6126
1 29.4419 18.0945 10.6126
1 29.3816 18.882 9.7826
1 28.6167 18.0785 9.8089
1 0.075 17.3008 10.6126
1 0.868701 16.5071 10.6126
1 0.855155 17.2756 9.80331
1 0.118087 16.4938 9.77231
1 1.6624 17.3008 10.6126
1 2.4561 16.5071 10.6126
1 2.47026 17.3184 9.82661
1 1.69333 16.5229 9.80579
1 3.2498 17.3008 10.6126
1 4.0435 16.5071 10.6126
1 4.06837 17.3062 9.8317
1 3.25778 16.5152 9.8168
1 4.8372 17.3008 10.6126
1 5.6309 16.5071 10.6126
1 5.63379 17.3078 9.83069
1 4.84649 16.494 9.80825
1 6.4246 17.3008 10.6126
1 7.2183 16.5071 10.6126
1 7.21767 17.2965 9.82576
1 6.45224 16.5218 9.82819
1 8.01201 17.3008 10.6126
1 8.80571 16.5071 10.6126
1 8.80869 17.2896 9.83041
1 8.01391 16.5162 9.81669
1 9.59941 17.3008 10.6126
1 10.3931 16.5071 10.6126
1 10.3481 17.306 9.80955
1 9.60128 16.4989 9.84122
1 11.1868 17.3008 10.6126
1 11.9805 16.5071 10.6126
1 11.9664 17.2893 9.81116
1 11.1689 16.5002 9.83532
1 12.7742 17.3008 10.6126
1 13.5679 16.5071 10.6126
1 13.5693 17.2559 9.82817
1 12.7684 16.4814 9.80496
1 14.3616 17.3008 10.6126
1 15.1553 16.5071 10.6126
1 15.1755 17.3129 9.83801
1 14.3682 16.5059 9.81204
1 15.949 17.3008 10.6126
1 16.7427 16.5071 10.6126
1 16.6941 17.302 9.84192
1 15.9454 16.5084 9.83065
1 17.5364 17.3008 10.6126
1 18.3301 16.5071 10.6126
1 18.3136 17.2822 9.86021
1 17.5041 16.5172 9.82122
1 19.1238 17.3008 10.6126
1 19.9175 16.5071 10.6126
1 19.9001 17.3054 9.82243
1 19.1382 16.466 9.82037
1 20.7112 17.3008 10.6126
1 21.5049 16.5071 10.6126
1 21.5055 17.2909 9.81132
1 20.7328 16.51 9.81781
1 22.2986 17.3008 10.6126
1 23.0923 16.5071 10.6126
1 23.097 17.2998 9.81641
1 22.2725 16.5158 9.81848
1 23.886 17.3008 10.6126
1 24.6797 16.5071 10.6126
1 24.6876 17.305 9.83236
1 23.9079 16.511 9.82699
1 25.4734 17.3008 10.6126
1 26.2671 16.5071 10.6126
1 26.2502 17.3249 9.79785
1 25.4724 16.501 9.79412
1 27.0608 17.3008 10.6126
1 27.8545 16.5071 10.6126
1 27.803 17.2965 9.81694
1 27.0215 16.5256 9.81685
1 28.6482 17.3008 10.6126
1 29.4419 16.5071 10.6126
1 29.3676 17.3144 9.77303
1 28.6095 16.4899 9.79822
1 0.075 15.7134 10.6126
1 0.868701 14.9197 10.6126
1 0.90631 15.7187 9.81135
1 0.143646 14.8927 9.79287
1 1.6624 15.7134 10.6126
1 2.4561 14.9197 10.6126
1 2.46361 15.7045 9.83785
1 1.68676 14.9036 9.82694
1 3.2498 15.7134 10.6126
1 4.0435 14.9197 10.6126
1 4.07244 15.7138 9.82033
1 3.27464 14.9486 9.82736
1 4.8372 15.7134 10.6126
1 5.6309 14.9197 10.6126
1 5.65075 15.7239 9.81365
1 4.83937 14.9275 9.8157
1 6.4246 15.7134 10.6126
1 7.2183 14.9197 10.6126
1 7.21781 15.7053 9.80572
1 6.43356 14.9245 9.81258
1 8.01201 15.7134 10.6126
1 8.80571 14.9197 10.6126
1 8.79529 15.7046 9.83176
1 8.01522 14.9144 9.84977
1 9.59941 15.7134 10.6126
1 10.3931 14.9197 10.6126
1 10.397 15.6962 9.83271
1 9.58456 14.8841 9.81655
1 11.1868 15.7134 10.6126
1 11.9805 14.9197 10.6126
1 11.9819 15.7206 9.82687
1 11.1909 14.9292 9.82638
1 12.7742 15.7134 10.6126
1 13.5679 14.9197 10.6126
1 13.5805 15.6985 9.81712
1 12.772 14.9179 9.81643
1 14.3616 15.7134 10.6126
1 15.1553 14.9197 10.6126
1 15.148 15.7063 9.81671
1 14.3834 14.9193 9.81282
1 15.949 15.7134 10.6126
1 16.7427 14.9197 10.6126
1 16.758 15.6947 9.82557
1 15.9586 14.9275 9.83053
1 17.5364 15.7134 10.6126
1 18.3301 14.9197 10.6126
1 18.3048 15.7235 9.80292
1 17.555 14.9443 9.82924
1 19.1238 15.7134 10.6126
1 19.9175 14.9197 10.6126
1 19.9118 15.692 9.81639
1 19.0777 14.9236 9.83814
1 20.7112 15.7134 10.6126
1 21.5049 14.9197 10.6126
1 21.5127 15.7224 9.82442
1 20.7133 14.9267 9.83949
1 22.2986 15.7134 10.6126
1 23.0923 14.9197 10.6126
1 23.1053 15.7223 9.8262
1 22.3096 14.9194 9.83661
1 23.886 15.7134 10.6126
1 24.6797 14.9197 10.6126
1 24.6748 15.7289 9.80013
1 23.8794 14.9277 9.81036
1 25.4734 15.7134 10.6126
1 26.2671 14.9197 10.6126
1 26.2707 15.7317 9.81841
1 25.4527 14.8912 9.82535
1 27.0608 15.7134 10.6126
1 27.8545 14.9197 10.6126
1 27.8222 15.719 9.82261
1 27.0588 14.9285 9.81928
1 28.6482 15.7134 10.6126
1 29.4419 14.9197 10.6126
1 29.3861 15.7144 9.78938
1 28.6076 14.9237 9.83626
1 0.075 14.126 10.6126
1 0.868701 13.3323 10.6126
1 0.928207 14.1324 9.79067
1 0.150974 13.3519 9.77736
1 1.6624 14.126 10.6126
1 2.4561 13.3323 10.6126
1 2.48817 14.1386 9.78904
1 1.69997 13.353 9.80975
1 3.2498 14.126 10.6126
1 4.0435 13.3323 10.6126
1 4.04522 14.1467 9.8083
1 3.28275 13.3529 9.80783
1 4.8372 14.126 10.6126
1 5.6309 13.3323 10.6126
1 5.62251 14.1259 9.8364
1 4.85316 13.3542 9.8267
1 6.4246 14.126 10.6126
1 7.2183 13.3323 10.6126
1 7.21484 14.1302 9.81972
1 6.44822 13.3256 9.84621
1 8.01201 14.126 10.6126
1 8.80571 13.3323 10.6126
1 8.81126 14.1389 9.83537
1 8.02478 13.3515 9.83411
1 9.59941 14.126 10.6126
1 10.3931 13.3323 10.6126
1 10.3902 14.1416 9.82831
1 9.6021 13.3505 9.8023
1 11.1868 14.126 10.6126
1 11.9805 13.3323 10.6126
1 11.9978 14.1285 9.80956
1 11.1837 13.3454 9.8127
1 12.7742 14.126 10.6126
1 13.5679 13.3323 10.6126
1 13.5725 14.1425 9.80463
1 12.775 13.3271 9.80696
1 14.3616 14.126 10.6126
1 15.1553 13.3323 10.6126
1 15.17 14.1075 9.81965
1 14.3335 13.3194 9.79165
1 15.949 14.126 10.6126
1 16.7427 13.3323 10.6126
1 16.7598 14.1484 9.83309
1 15.9435 13.3214 9.81381
1 17.5364 14.126 10.6126
1 18.3301 13.3323 10.6126
1 18.344 14.1196 9.8171
1 17.5462 13.3203 9.80289
1 19.1238 14.126 10.6126
1 19.9175 13.3323 10.6126
1 19.9249 14.1304 9.82002
1 19.1351 13.3642 9.80922
1 20.7112 14.126 10.6126
1 21.5049 13.3323 10.6126
1 21.519 14.128 9.80107
1 20.7199 13.3382 9.80703
1 22.2986 14.126 10.6126
1 23.0923 13.3323 10.6126
1 23.0758 14.1218 9.79249
1 22.2726 13.3422 9.81049
1 23.886 14.126 10.6126
1 24.6797 13.3323 10.6126
1 24.6699 14.0928 9.80202
1 23.8969 13.3303 9.83386
1 25.4734 14.126 10.6126
1 26.2671 13.3323 10.6126
1 26.2432 14.1329 9.82433
1 25.4728 13.3336 9.81697
1 27.0608 14.126 10.6126
1 27.8545 13.3323 10.6126
1 27.8341 14.1216 9.8053
1 27.0331 13.3426 9.79214
1 28.6482 14.126 10.6126
1 29.4419 13.3323 10.6126
1 29.3693 14.1236 9.77138
1 28.6152 13.3525 9.79548
1 0.075 12.5386 10.6126
1 0.868701 11.7449 10.6126
1 0.890204 12.5778 9.79455
1 0.121005 11.7373 9.77395
1 1.6624 12.5386 10.6126
1 2.4561 11.7449 10.6126
1 2.47251 12.5553 9.81665
1 1.67387 11.7469 9.83641
1 3.2498 12.5386 10.6126
1 4.0435 11.7449 10.6126
1 4.03605 12.558 9.81196
1 3.26007 11.7257 9.83013
1 4.8372 12.5386 10.6126
1 5.6309 11.7449 10.6126
1 5.6066 12.5333 9.81372
1 4.82103 11.7488 9.82216
1 6.4246 12.5386 10.6126
1 7.2183 11.7449 10.6126
1 7.2281 12.5435 9.81106
1 6.42665 11.7549 9.83096
1 8.01201 12.5386 10.6126
1 8.80571 11.7449 10.6126
1 8.80422 12.5499 9.80595
1 7.99588 11.7592 9.8285
1 9.59941 12.5386 10.6126
1 10.3931 11.7449 10.6126
1 10.4086 12.5461 9.82311
1 9.58833 11.7617 9.81027
1 11.1868 12.5386 10.6126
1 11.9805 11.7449 10.6126
1 11.9991 12.5341 9.81259
1 11.164 11.7385 9.81694
1 12.7742 12.5386 10.6126
1 13.5679 11.7449 10.6126
1 13.5605 12.5283 9.81474
1 12.7756 11.7515 9.83631
1 14.3616 12.5386 10.6126
1 15.1553 11.7449 10.6126
1 15.1645 12.5389 9.8079
1 14.3689 11.7467 9.8106
1 15.949 12.5386 10.6126
1 16.7427 11.7449 10.6126
1 16.728 12.5548 9.84616
1 15.9764 11.7374 9.81505
1 17.5364 12.5386 10.6126
1 18.3301 11.7449 10.6126
1 18.3398 12.5588 9.80902
1 17.5292 11.7514 9.83916
1 19.1238 12.5386 10.6126
1 19.9175 11.7449 10.6126
1 19.9321 12.5496 9.80535
1 19.1335 11.7348 9.82374
1 20.7112 12.5386 10.6126
1 21.5049 11.7449 10.6126
1 21.508 12.541 9.81293
1 20.7384 11.7453 9.81111
1 22.2986 12.5386 10.6126
1 23.0923 11.7449 10.6126
1 23.0776 12.54 9.83323
1 22.2967 11.7435 9.83167
1 23.886 12.5386 10.6126
1 24.6797 11.7449 10.6126
1 24.6825 12.5453 9.8204
1 23.87 11.741 9.82958
1 25.4734 12.5386 10.6126
1 26.2671 11.7449 10.6126
1 26.2544 12.5463 9.81736
1 25.4457 11.7287 9.80069
1 27.0608 12.5386 10.6126
1 27.8545 11.7449 10.6126
1 27.8193 12.5371 9.80458
1 27.0329 11.7364 9.81561
1 28.6482 12.5386 10.6126
1 29.4419 11.7449 10.6126
1 29.3828 12.5205 9.78964
1 28.6199 11.7469 9.80773
1 0.075 10.9512 10.6126
1 0.868701 10.1575 10.6126
1 0.909136 10.944 9.80418
1 0.121304 10.1746 9.8216
1 1.6624 10.9512 10.6126
1 2.4561 10.1575 10.6126
1 2.4366 10.9579 9.81849
1 1.6795 10.175 9.81371
1 3.2498 10.9512 10.6126
1 4.0435 10.1575 10.6126
1 4.03768 10.9272 9.82788
1 3.2528 10.1836 9.81169
1 4.8372 10.9512 10.6126
1 5.6309 10.1575 10.6126
1 5.63179 10.964 9.80541
1 4.84426 10.1533 9.79538
1 6.4246 10.9512 10.6126
1 7.2183 10.1575 10.6126
1 7.23684 10.9185 9.84409
1 6.42411 10.1467 9.79129
1 8.01201 10.9512 10.6126
1 8.80571 10.1575 10.6126
1 8.80313 10.951 9.816
1 8.01606 10.1405 9.81881
1 9.59941 10.9512 10.6126
1 10.3931 10.1575 10.6126
1 10.3754 10.9391 9.83781
1 9.61074 10.1598 9.80095
1 11.1868 10.9512 10.6126
1 11.9805 10.1575 10.6126
1 11.9783 10.9568 9.83023
1 11.1912 10.1632 9.80431
1 12.7742 10.9512 10.6126
1 13.5679 10.1575 10.6126
1 13.5631 10.9334 9.8182
1 12.7772 10.1195 9.815
1 14.3616 10.9512 10.6126
1 15.1553 10.1575 10.6126
1 15.1558 10.9448 9.78987
1 14.3705 10.159 9.81141
1 15.949 10.9512 10.6126
1 16.7427 10.1575 10.6126
1 16.7497 10.9534 9.8167
1 15.9443 10.164 9.82142
1 17.5364 10.9512 10.6126
1 18.3301 10.1575 10.6126
1 18.3586 10.9369 9.82975
1 17.5123 10.139 9.83792
1 19.1238 10.9512 10.6126
1 19.9175 10.1575 10.6126
1 19.9 10.9489 9.82226
1 19.1404 10.1415 9.79416
1 20.7112 10.9512 10.6126
1 21.5049 10.1575 10.6126
1 21.4821 10.9436 9.81297
1 20.6916 10.1526 9.81862
1 22.2986 10.9512 10.6126
1 23.0923 10.1575 10.6126
1 23.0687 10.9539 9.81737
1 22.2837 10.1483 9.78401
1 23.886 10.9512 10.6126
1 24.6797 10.1575 10.6126
1 24.652 10.9162 9.83615
1 23.8629 10.1412 9.81337
1 25.4734 10.9512 10.6126
1 26.2671 10.1575 10.6126
1 26.2377 10.9306 9.7928
1 25.4623 10.1573 9.80156
1 27.0608 10.9512 10.6126
1 27.8545 10.1575 10.6126
1 27.8475 10.9491 9.81097
1 27.0532 10.1604 9.82686
1 28.6482 10.9512 10.6126
1 29.4419 10.1575 10.6126
1 29.3637 10.9659 9.78929
1 28.6214 10.1723 9.81088
1 0.075 9.36379 10.6126
1 0.868701 8.57009 10.6126
1 0.90229 9.3741 9.82191
1 0.127626 8.56113 9.7838
1 1.6624 9.36379 10.6126
1 2.4561 8.57009 10.6126
1 2.45765 9.38255 9.82212
1 1.71106 8.58878 9.80839
1 3.2498 9.36379 10.6126
1 4.0435 8.57009 10.6126
1 4.05504 9.37019 9.84792
1 3.25456 8.59093 9.82556
1 4.8372 9.36379 10.6126
1 5.6309 8.57009 10.6126
1 5.63577 9.37089 9.82043
1 4.86611 8.58306 9.80924
1 6.4246 9.36379 10.6126
1 7.2183 8.57009 10.6126
1 7.20443 9.36059 9.81678
1 6.43342 8.56691 9.83927
1 8.01201 9.36379 10.6126
1 8.80571 8.57009 10.6126
1 8.79294 9.35316 9.82293
1 8.00473 8.59371 9.81819
1 9.59941 9.36379 10.6126
1 10.3931 8.57009 10.6126
1 10.3957 9.32821 9.82644
1 9.59994 8.5578 9.83948
1 11.1868 9.36379 10.6126
1 11.9805 8.57009 10.6126
1 11.9714 9.36239 9.82274
1 11.1991 8.54187 9.82037
1 12.7742 9.36379 10.6126
1 13.5679 8.57009 10.6126
1 13.5847 9.35692 9.81623
1 12.7681 8.58546 9.8053
1 14.3616 9.36379 10.6126
1 15.1553 8.57009 10.6126
1 15.1475 9.39331 9.82999
1 14.3644 8.57284 9.82749
1 15.949 9.36379 10.6126
1 16.7427 8.57009 10.6126
1 16.7329 9.36278 9.83035
1 15.9599 8.57883 9.83092
1 17.5364 9.36379 10.6126
1 18.3301 8.57009 10.6126
1 18.3168 9.38361 9.84202
1 17.538 8.53322 9.80968
1 19.1238 9.36379 10.6126
1 19.9175 8.57009 10.6126
1 19.8998 9.37454 9.80603
1 19.1134 8.5665 9.82715
1 20.7112 9.36379 10.6126
1 21.5049 8.57009 10.6126
1 21.5071 9.35141 9.80033
1 20.72 8.56473 9.82209
1 22.2986 9.36379 10.6126
1 23.0923 8.57009 10.6126
1 23.0909 9.35144 9.8042
1 22.3061 8.56716 9.81285
1 23.886 9.36379 10.6126
1 24.6797 8.57009 10.6126
1 24.6787 9.34802 9.85097
1 23.8871 8.55301 9.81177
1 25.4734 9.36379 10.6126
1 26.2671 8.57009 10.6126
1 26.2717 9.37266 9.80721
1 25.4869 8.56182 9.81217
1 27.0608 9.36379 10.6126
1 27.8545 8.57009 10.6126
1 27.856 9.35985 9.81104
1 27.0717 8.57145 9.82442
1 28.6482 9.36379 10.6126
1 29.4419 8.57009 10.6126
1 29.3715 9.35175 9.77968
1 28.6013 8.54742 9.82588
1 0.075 7.77639 10.6126
1 0.868701 6.98268 10.6126
1 0.905388 7.79798 9.80657
1 0.147792 6.98867 9.80571
1 1.6624 7.77639 10.6126
1 2.4561 6.98268 10.6126
1 2.47184 7.77458 9.83131
1 1.66411 6.99118 9.83593
1 3.2498 7.77639 10.6126
1 4.0435 6.98268 10.6126
1 4.0486 7.78081 9.81977
1 3.26062 7.00017 9.82315
1 4.8372 7.77639 10.6126
1 5.6309 6.98268 10.6126
1 5.62907 7.77638 9.82153
1 4.83792 6.99154 9.81468
1 6.4246 7.77639 10.6126
1 7.2183 6.98268 10.6126
1 7.24174 7.78224 9.83541
1 6.44357 7.00486 9.81388
1 8.01201 7.77639 10.6126
1 8.80571 6.98268 10.6126
1 8.79717 7.7779 9.79766
1 7.9987 6.97498 9.80528
1 9.59941 7.77639 10.6126
1 10.3931 6.98268 10.6126
1 10.3995 7.77652 9.8191
1 9.61618 7.00719 9.80779
1 11.1868 7.77639 10.6126
1 11.9805 6.98268 10.6126
1 11.9898 7.75559 9.81299
1 11.1856 6.99006 9.83614
1 12.7742 7.77639 10.6126
1 13.5679 6.98268 10.6126
1 13.5668 7.7857 9.83233
1 12.784 6.99855 9.8355
1 14.3616 7.77639 10.6126
1 15.1553 6.98268 10.6126
1 15.1667 7.80093 9.80643
1 14.3573 6.9883 9.81835
1 15.949 7.77639 10.6126
1 16.7427 6.98268 10.6126
1 16.7306 7.77309 9.82845
1 15.9168 6.95454 9.8379
1 17.5364 7.77639 10.6126
1 18.3301 6.98268 10.6126
1 18.3426 7.76835 9.83381
1 17.5271 6.98361 9.84894
1 19.1238 7.77639 10.6126
1 19.9175 6.98268 10.6126
1 19.9208 7.80075 9.79807
1 19.1067 6.96133 9.79637
1 20.7112 7.77639 10.6126
1 21.5049 6.98268 10.6126
1 21.5099 7.77994 9.81984
1 20.7089 6.98336 9.81067
1 22.2986 7.77639 10.6126
1 23.0923 6.98268 10.6126
1 23.1199 7.76719 9.81884
1 22.3118 6.98939 9.83661
1 23.886 7.77639 10.6126
1 24.6797 6.98268 10.6126
1 24.6885 7.79455 9.8263
1 23.8994 6.95555 9.79261
1 25.4734 7.77639 10.6126
1 26.2671 6.98268 10.6126
1 26.2719 7.76729 9.82509
1 25.4684 6.97127 9.80573
1 27.0608 7.77639 10.6126
1 27.8545 6.98268 10.6126
1 27.842 7.78195 9.8015
1 27.0588 7.00427 9.81578
1 28.6482 7.77639 10.6126
1 29.4419 6.98268 10.6126
1 29.3605 7.7667 9.78203
1 28.6271 6.98147 9.80183
1 0.075 6.18898 10.6126
1 0.868701 5.39528 10.6126
1 0.869559 6.19437 9.80907
1 0.12636 5.38313 9.78081
1 1.6624 6.18898 10.6126
1 2.4561 5.39528 10.6126
1 2.50032 6.17478 9.80012
1 1.70505 5.42076 9.79855
1 3.2498 6.18898 10.6126
1 4.0435 5.39528 10.6126
1 4.03047 6.20685 9.83003
1 3.25091 5.38226 9.84286
1 4.8372 6.18898 10.6126
1 5.6309 5.39528 10.6126
1 5.63255 6.18472 9.79954
1 4.85677 5.38507 9.80405
1 6.4246 6.18898 10.6126
1 7.2183 5.39528 10.6126
1 7.22883 6.18076 9.82304
1 6.44126 5.3969 9.81908
1 8.01201 6.18898 10.6126
1 8.80571 5.39528 10.6126
1 8.81183 6.21579 9.81597
1 8.01686 5.40354 9.80888