9376
Atoms. Timestep: 4000000
1 15 3.55271e-15 10.6661
1 15.7937 29.2063 10.6661
1 15.8528 29.9166 9.82059
1 15.0693 29.1569 9.83962
1 16.5874 3.55271e-15 10.6661
1 17.3811 29.2063 10.6661
1 17.3748 29.9052 9.84196
1 16.6158 29.1704 9.869
1 18.1748 3.55271e-15 10.6661
1 18.9685 29.2063 10.6661
1 18.9592 29.9264 9.83368
1 18.1989 29.1476 9.87428
1 19.7622 3.55271e-15 10.6661
1 20.5559 29.2063 10.6661
1 20.5685 29.9241 9.82951
1 19.7471 29.1685 9.86542
1 21.3496 3.55271e-15 10.6661
1 22.1433 29.2063 10.6661
1 22.1632 29.9475 9.86374
1 21.3774 29.184 9.84607
1 22.937 3.55271e-15 10.6661
1 23.7307 29.2063 10.6661
1 23.7309 29.9138 9.85415
1 22.9517 29.157 9.88042
1 24.5244 3.55271e-15 10.6661
1 25.3181 29.2063 10.6661
1 25.3127 29.9275 9.83777
1 24.5465 29.1614 9.83821
1 26.1118 3.55271e-15 10.6661
1 26.9055 29.2063 10.6661
1 26.8662 29.944 9.82562
1 26.0953 29.1827 9.86129
1 27.6992 3.55271e-15 10.6661
1 28.4929 29.2063 10.6661
1 28.501 29.924 9.79846
1 27.6768 29.1782 9.8782
1 29.2866 3.55271e-15 10.6661
1 0.08031 29.2063 10.6661
1 0.0872677 29.9425 9.84775
1 29.276 29.1915 9.84091
1 0.874011 3.55271e-15 10.6661
1 1.66771 29.2063 10.6661
1 1.68912 29.9357 9.83614
1 0.862512 29.213 9.87196
1 2.46141 3.55271e-15 10.6661
1 3.25511 29.2063 10.6661
1 3.26352 29.9137 9.83783
1 2.46911 29.1677 9.86722
1 4.04881 3.55271e-15 10.6661
1 4.84251 29.2063 10.6661
1 4.84358 29.9307 9.8339
1 4.06115 29.187 9.86751
1 5.63621 3.55271e-15 10.6661
1 6.42991 29.2063 10.6661
1 6.41261 29.9445 9.84246
1 5.64095 29.184 9.86094
1 7.22361 3.55271e-15 10.6661
1 8.01732 29.2063 10.6661
1 8.01458 29.9286 9.86229
1 7.20734 29.1608 9.89059
1 8.81102 3.55271e-15 10.6661
1 9.60472 29.2063 10.6661
1 9.59368 29.9184 9.83166
1 8.78509 29.1529 9.88315
1 10.3984 3.55271e-15 10.6661
1 11.1921 29.2063 10.6661
1 11.1773 29.9263 9.83516
1 10.4065 29.196 9.87718
1 11.9858 3.55271e-15 10.6661
1 12.7795 29.2063 10.6661
1 12.7531 29.9541 9.82292
1 11.9755 29.1913 9.8527
1 13.5732 3.55271e-15 10.6661
1 14.3669 29.2063 10.6661
1 14.2976 29.9061 9.823
1 13.5251 29.1949 9.87165
1 15 28.4126 10.6661
1 15.7937 27.6189 10.6661
1 15.8184 28.3883 9.87392
1 15.0677 27.603 9.83196
1 16.5874 28.4126 10.6661
1 17.3811 27.6189 10.6661
1 17.3919 28.3896 9.8541
1 16.6179 27.6065 9.86112
1 18.1748 28.4126 10.6661
1 18.9685 27.6189 10.6661
1 18.9575 28.3836 9.86083
1 18.1694 27.5792 9.85801
1 19.7622 28.4126 10.6661
1 20.5559 27.6189 10.6661
1 20.547 28.4012 9.84808
1 19.7504 27.5874 9.85607
1 21.3496 28.4126 10.6661
1 22.1433 27.6189 10.6661
1 22.157 28.3941 9.88521
1 21.3464 27.5912 9.86579
1 22.937 28.4126 10.6661
1 23.7307 27.6189 10.6661
1 23.7463 28.3941 9.88716
1 22.9441 27.6191 9.8857
1 24.5244 28.4126 10.6661
1 25.3181 27.6189 10.6661
1 25.3321 28.3979 9.89311
1 24.5349 27.5974 9.87016
1 26.1118 28.4126 10.6661
1 26.9055 27.6189 10.6661
1 26.9178 28.386 9.86047
1 26.1201 27.6266 9.86307
1 27.6992 28.4126 10.6661
1 28.4929 27.6189 10.6661
1 28.4904 28.4072 9.86126
1 27.7015 27.6206 9.86294
1 29.2866 28.4126 10.6661
1 0.08031 27.6189 10.6661
1 0.0759449 28.4236 9.8509
1 29.2909 27.604 9.85602
1 0.874011 28.4126 10.6661
1 1.66771 27.6189 10.6661
1 1.66179 28.4175 9.879
1 0.876775 27.6073 9.86816
1 2.46141 28.4126 10.6661
1 3.25511 27.6189 10.6661
1 3.2781 28.3925 9.87052
1 2.44141 27.6354 9.87697
1 4.04881 28.4126 10.6661
1 4.84251 27.6189 10.6661
1 4.86057 28.3839 9.89053
1 4.09015 27.595 9.87889
1 5.63621 28.4126 10.6661
1 6.42991 27.6189 10.6661
1 6.4022 28.4026 9.86991
1 5.62181 27.6081 9.84002
1 7.22361 28.4126 10.6661
1 8.01732 27.6189 10.6661
1 7.98754 28.3707 9.85508
1 7.19896 27.5864 9.86689
1 8.81102 28.4126 10.6661
1 9.60472 27.6189 10.6661
1 9.59904 28.4032 9.87927
1 8.79174 27.5881 9.86173
1 10.3984 28.4126 10.6661
1 11.1921 27.6189 10.6661
1 11.1984 28.3861 9.8517
1 10.3966 27.6072 9.87032
1 11.9858 28.4126 10.6661
1 12.7795 27.6189 10.6661
1 12.7539 28.3969 9.88915
1 11.9605 27.5721 9.87669
1 13.5732 28.4126 10.6661
1 14.3669 27.6189 10.6661
1 14.2976 28.4016 9.83778
1 13.5336 27.5995 9.85671
1 15 26.8252 10.6661
1 15.7937 26.0315 10.6661
1 15.8321 26.8207 9.83034
1 15.0851 26.0272 9.82419
1 16.5874 26.8252 10.6661
1 17.3811 26.0315 10.6661
1 17.4042 26.8064 9.88913
1 16.6119 25.9967 9.88499
1 18.1748 26.8252 10.6661
1 18.9685 26.0315 10.6661
1 18.9573 26.807 9.84911
1 18.2007 25.9884 9.85323
1 19.7622 26.8252 10.6661
1 20.5559 26.0315 10.6661
1 20.574 26.8095 9.86723
1 19.7683 26.0282 9.89914
1 21.3496 26.8252 10.6661
1 22.1433 26.0315 10.6661
1 22.1591 26.8266 9.86704
1 21.3737 26.0342 9.89171
1 22.937 26.8252 10.6661
1 23.7307 26.0315 10.6661
1 23.7208 26.8182 9.87191
1 22.9467 26.0368 9.86225
1 24.5244 26.8252 10.6661
1 25.3181 26.0315 10.6661
1 25.3225 26.8204 9.85941
1 24.5355 26.037 9.86294
1 26.1118 26.8252 10.6661
1 26.9055 26.0315 10.6661
1 26.9166 26.8053 9.86252
1 26.1269 26.0247 9.85147
1 27.6992 26.8252 10.6661
1 28.4929 26.0315 10.6661
1 28.4834 26.81 9.87576
1 27.6966 26.0325 9.8814
1 29.2866 26.8252 10.6661
1 0.08031 26.0315 10.6661
1 0.0837304 26.8253 9.87271
1 29.2897 26.0405 9.86199
1 0.874011 26.8252 10.6661
1 1.66771 26.0315 10.6661
1 1.64103 26.8346 9.87074
1 0.870825 26.0328 9.86434
1 2.46141 26.8252 10.6661
1 3.25511 26.0315 10.6661
1 3.24529 26.8497 9.86717
1 2.46679 26.0701 9.86836
1 4.04881 26.8252 10.6661
1 4.84251 26.0315 10.6661
1 4.85182 26.7967 9.86995
1 4.0597 26.0307 9.86209
1 5.63621 26.8252 10.6661
1 6.42991 26.0315 10.6661
1 6.4212 26.8098 9.8511
1 5.65109 26.0321 9.84728
1 7.22361 26.8252 10.6661
1 8.01732 26.0315 10.6661
1 8.00836 26.8293 9.87615
1 7.22964 26.0551 9.87719
1 8.81102 26.8252 10.6661
1 9.60472 26.0315 10.6661
1 9.60237 26.8284 9.88113
1 8.80238 26.0127 9.8865
1 10.3984 26.8252 10.6661
1 11.1921 26.0315 10.6661
1 11.1752 26.8111 9.88086
1 10.3909 26.0303 9.89077
1 11.9858 26.8252 10.6661
1 12.7795 26.0315 10.6661
1 12.7607 26.8025 9.89708
1 11.9514 26.0057 9.84101
1 13.5732 26.8252 10.6661
1 14.3669 26.0315 10.6661
1 14.2962 26.7933 9.85322
1 13.5308 26.0205 9.84519
1 15 25.2378 10.6661
1 15.7937 24.4441 10.6661
1 15.8353 25.2137 9.85766
1 15.0657 24.4439 9.8394
1 16.5874 25.2378 10.6661
1 17.3811 24.4441 10.6661
1 17.3945 25.2263 9.85634
1 16.62 24.4252 9.84485
1 18.1748 25.2378 10.6661
1 18.9685 24.4441 10.6661
1 18.9852 25.2204 9.86592
1 18.188 24.431 9.86344
1 19.7622 25.2378 10.6661
1 20.5559 24.4441 10.6661
1 20.5625 25.2363 9.88522
1 19.7718 24.4393 9.8904
1 21.3496 25.2378 10.6661
1 22.1433 24.4441 10.6661
1 22.1736 25.233 9.89076
1 21.3674 24.4416 9.88336
1 22.937 25.2378 10.6661
1 23.7307 24.4441 10.6661
1 23.7343 25.232 9.86302
1 22.9471 24.4259 9.88096
1 24.5244 25.2378 10.6661
1 25.3181 24.4441 10.6661
1 25.345 25.2425 9.88644
1 24.5372 24.4207 9.87673
1 26.1118 25.2378 10.6661
1 26.9055 24.4441 10.6661
1 26.9234 25.2493 9.86097
1 26.1227 24.4573 9.88397
1 27.6992 25.2378 10.6661
1 28.4929 24.4441 10.6661
1 28.4961 25.2164 9.85828
1 27.6926 24.4473 9.86375
1 29.2866 25.2378 10.6661
1 0.08031 24.4441 10.6661
1 0.0844268 25.2347 9.86954
1 29.3048 24.4218 9.89269
1 0.874011 25.2378 10.6661
1 1.66771 24.4441 10.6661
1 1.658 25.2523 9.87758
1 0.882171 24.4301 9.86349
1 2.46141 25.2378 10.6661
1 3.25511 24.4441 10.6661
1 3.25021 25.2336 9.88705
1 2.44853 24.4469 9.86362
1 4.04881 25.2378 10.6661
1 4.84251 24.4441 10.6661
1 4.85532 25.2548 9.89949
1 4.03006 24.4352 9.87981
1 5.63621 25.2378 10.6661
1 6.42991 24.4441 10.6661
1 6.46756 25.2445 9.86094
1 5.64232 24.4555 9.86245
1 7.22361 25.2378 10.6661
1 8.01732 24.4441 10.6661
1 7.99545 25.2317 9.86462
1 7.2162 24.4526 9.85722
1 8.81102 25.2378 10.6661
1 9.60472 24.4441 10.6661
1 9.60825 25.237 9.88214
1 8.78738 24.4367 9.8794
1 10.3984 25.2378 10.6661
1 11.1921 24.4441 10.6661
1 11.1753 25.2276 9.87997
1 10.3606 24.4183 9.88603
1 11.9858 25.2378 10.6661
1 12.7795 24.4441 10.6661
1 12.766 25.2612 9.87676
1 11.98 24.4458 9.84418
1 13.5732 25.2378 10.6661
1 14.3669 24.4441 10.6661
1 14.3059 25.2356 9.84037
1 13.5154 24.4403 9.84158
1 15 23.6504 10.6661
1 15.7937 22.8567 10.6661
1 15.8128 23.6641 9.85187
1 15.0788 22.8398 9.8565
1 16.5874 23.6504 10.6661
1 17.3811 22.8567 10.6661
1 17.3935 23.6608 9.87383
1 16.6115 22.8664 9.87896
1 18.1748 23.6504 10.6661
1 18.9685 22.8567 10.6661
1 18.9917 23.6437 9.88933
1 18.1751 22.8584 9.87098
1 19.7622 23.6504 10.6661
1 20.5559 22.8567 10.6661
1 20.5553 23.6266 9.86133
1 19.7668 22.844 9.87301
1 21.3496 23.6504 10.6661
1 22.1433 22.8567 10.6661
1 22.13 23.6359 9.87016
1 21.3377 22.8469 9.89411
1 22.937 23.6504 10.6661
1 23.7307 22.8567 10.6661
1 23.7427 23.6535 9.86635
1 22.925 22.8391 9.88783
1 24.5244 23.6504 10.6661
1 25.3181 22.8567 10.6661
1 25.3157 23.6348 9.88862
1 24.5254 22.8327 9.88363
1 26.1118 23.6504 10.6661
1 26.9055 22.8567 10.6661
1 26.911 23.6826 9.86193
1 26.1258 22.8306 9.87123
1 27.6992 23.6504 10.6661
1 28.4929 22.8567 10.6661
1 28.4966 23.6427 9.87829
1 27.6827 22.8679 9.86905
1 29.2866 23.6504 10.6661
1 0.08031 22.8567 10.6661
1 0.0733149 23.6601 9.86667
1 29.2657 22.8689 9.86272
1 0.874011 23.6504 10.6661
1 1.66771 22.8567 10.6661
1 1.67224 23.6472 9.88466
1 0.871989 22.8701 9.86722
1 2.46141 23.6504 10.6661
1 3.25511 22.8567 10.6661
1 3.25467 23.6342 9.87637
1 2.46167 22.8466 9.89333
1 4.04881 23.6504 10.6661
1 4.84251 22.8567 10.6661
1 4.83299 23.6584 9.85323
1 4.03912 22.8727 9.88405
1 5.63621 23.6504 10.6661
1 6.42991 22.8567 10.6661
1 6.43819 23.6592 9.85527
1 5.62663 22.8332 9.89383
1 7.22361 23.6504 10.6661
1 8.01732 22.8567 10.6661
1 8.00795 23.6439 9.85918
1 7.22277 22.8536 9.87613
1 8.81102 23.6504 10.6661
1 9.60472 22.8567 10.6661
1 9.57777 23.6342 9.86548
1 8.80536 22.8499 9.86984
1 10.3984 23.6504 10.6661
1 11.1921 22.8567 10.6661
1 11.1627 23.6629 9.87893
1 10.3819 22.8523 9.89164
1 11.9858 23.6504 10.6661
1 12.7795 22.8567 10.6661
1 12.7447 23.6567 9.86865
1 11.9501 22.8799 9.87224
1 13.5732 23.6504 10.6661
1 14.3669 22.8567 10.6661
1 14.3044 23.652 9.83395
1 13.5719 22.856 9.85742
1 15 22.063 10.6661
1 15.7937 21.2693 10.6661
1 15.8222 22.0351 9.87887
1 15.0688 21.2717 9.86306
1 16.5874 22.063 10.6661
1 17.3811 21.2693 10.6661
1 17.3997 22.0586 9.86867
1 16.5883 21.2693 9.87036
1 18.1748 22.063 10.6661
1 18.9685 21.2693 10.6661
1 18.9868 22.0753 9.85654
1 18.1858 21.2512 9.90992
1 19.7622 22.063 10.6661
1 20.5559 21.2693 10.6661
1 20.5562 22.0601 9.88058
1 19.7698 21.2637 9.88372
1 21.3496 22.063 10.6661
1 22.1433 21.2693 10.6661
1 22.149 22.0881 9.87284
1 21.3383 21.2645 9.88285
1 22.937 22.063 10.6661
1 23.7307 21.2693 10.6661
1 23.7394 22.066 9.8762
1 22.9562 21.2778 9.89379
1 24.5244 22.063 10.6661
1 25.3181 21.2693 10.6661
1 25.3495 22.0766 9.86901
1 24.5414 21.2793 9.88018
1 26.1118 22.063 10.6661
1 26.9055 21.2693 10.6661
1 26.8928 22.052 9.86507
1 26.1304 21.268 9.86923
1 27.6992 22.063 10.6661
1 28.4929 21.2693 10.6661
1 28.5002 22.063 9.87631
1 27.7172 21.2576 9.85167
1 29.2866 22.063 10.6661
1 0.08031 21.2693 10.6661
1 0.0720731 22.073 9.89941
1 29.271 21.2734 9.88412
1 0.874011 22.063 10.6661
1 1.66771 21.2693 10.6661
1 1.64773 22.0665 9.86705
1 0.884204 21.2896 9.87956
1 2.46141 22.063 10.6661
1 3.25511 21.2693 10.6661
1 3.26783 22.0765 9.89085
1 2.45347 21.2854 9.86421
1 4.04881 22.063 10.6661
1 4.84251 21.2693 10.6661
1 4.84418 22.0562 9.8745
1 4.02552 21.2807 9.85339
1 5.63621 22.063 10.6661
1 6.42991 21.2693 10.6661
1 6.4262 22.0593 9.86846
1 5.6239 21.2546 9.86747
1 7.22361 22.063 10.6661
1 8.01732 21.2693 10.6661
1 7.99646 22.0483 9.86673
1 7.21728 21.245 9.88383
1 8.81102 22.063 10.6661
1 9.60472 21.2693 10.6661
1 9.58414 22.0418 9.86119
1 8.77993 21.2475 9.85686
1 10.3984 22.063 10.6661
1 11.1921 21.2693 10.6661
1 11.1662 22.0655 9.89509
1 10.3832 21.2628 9.88602
1 11.9858 22.063 10.6661
1 12.7795 21.2693 10.6661
1 12.7645 22.0604 9.8584
1 11.9892 21.2566 9.86132
1 13.5732 22.063 10.6661
1 14.3669 21.2693 10.6661
1 14.2926 22.061 9.85596
1 13.5476 21.2664 9.87214
1 15 20.4756 10.6661
1 15.7937 19.6819 10.6661
1 15.8388 20.4935 9.86115
1 15.0594 19.6856 9.84609
1 16.5874 20.4756 10.6661
1 17.3811 19.6819 10.6661
1 17.3829 20.4644 9.89154
1 16.6033 19.6867 9.85913
1 18.1748 20.4756 10.6661
1 18.9685 19.6819 10.6661
1 18.9614 20.4693 9.86182
1 18.1859 19.6827 9.88723
1 19.7622 20.4756 10.6661
1 20.5559 19.6819 10.6661
1 20.5477 20.4826 9.86269
1 19.7366 19.6925 9.87775
1 21.3496 20.4756 10.6661
1 22.1433 19.6819 10.6661
1 22.1659 20.4609 9.88625
1 21.3648 19.6844 9.85436
1 22.937 20.4756 10.6661
1 23.7307 19.6819 10.6661
1 23.7307 20.4886 9.87019
1 22.9493 19.6819 9.88292
1 24.5244 20.4756 10.6661
1 25.3181 19.6819 10.6661
1 25.3284 20.5045 9.90174
1 24.5093 19.6954 9.87903
1 26.1118 20.4756 10.6661
1 26.9055 19.6819 10.6661
1 26.9251 20.4652 9.87558
1 26.0963 19.6783 9.89636
1 27.6992 20.4756 10.6661
1 28.4929 19.6819 10.6661
1 28.5078 20.4757 9.86796
1 27.7284 19.696 9.87326
1 29.2866 20.4756 10.6661
1 0.08031 19.6819 10.6661
1 0.0614552 20.4815 9.86529
1 29.2596 19.6871 9.85131
1 0.874011 20.4756 10.6661
1 1.66771 19.6819 10.6661
1 1.68156 20.4889 9.87517
1 0.873849 19.6998 9.87628
1 2.46141 20.4756 10.6661
1 3.25511 19.6819 10.6661
1 3.25572 20.4876 9.86978
1 2.44829 19.6956 9.87323
1 4.04881 20.4756 10.6661
1 4.84251 19.6819 10.6661
1 4.86234 20.466 9.87551
1 4.06367 19.6519 9.87685
1 5.63621 20.4756 10.6661
1 6.42991 19.6819 10.6661
1 6.4428 20.4754 9.87722
1 5.64211 19.6801 9.86876
1 7.22361 20.4756 10.6661
1 8.01732 19.6819 10.6661
1 8.03743 20.4951 9.88288
1 7.23044 19.6839 9.86304
1 8.81102 20.4756 10.6661
1 9.60472 19.6819 10.6661
1 9.59569 20.4845 9.88345
1 8.81452 19.6676 9.8826
1 10.3984 20.4756 10.6661
1 11.1921 19.6819 10.6661
1 11.1964 20.4889 9.87195
1 10.4179 19.6955 9.87122
1 11.9858 20.4756 10.6661
1 12.7795 19.6819 10.6661
1 12.7422 20.4635 9.87114
1 11.9659 19.676 9.86453
1 13.5732 20.4756 10.6661
1 14.3669 19.6819 10.6661
1 14.3122 20.498 9.83709
1 13.5643 19.6823 9.86232
1 15 18.8882 10.6661
1 15.7937 18.0945 10.6661
1 15.8182 18.908 9.85011
1 15.0795 18.0866 9.8201
1 16.5874 18.8882 10.6661
1 17.3811 18.0945 10.6661
1 17.3908 18.9072 9.86478
1 16.5919 18.1234 9.8767
1 18.1748 18.8882 10.6661
1 18.9685 18.0945 10.6661
1 18.9925 18.9045 9.88778
1 18.1523 18.112 9.88152
1 19.7622 18.8882 10.6661
1 20.5559 18.0945 10.6661
1 20.571 18.8971 9.88754
1 19.7691 18.0818 9.86932
1 21.3496 18.8882 10.6661
1 22.1433 18.0945 10.6661
1 22.1585 18.8925 9.87668
1 21.357 18.1022 9.87091
1 22.937 18.8882 10.6661
1 23.7307 18.0945 10.6661
1 23.7246 18.8796 9.85967
1 22.9538 18.0833 9.88244
1 24.5244 18.8882 10.6661
1 25.3181 18.0945 10.6661
1 25.2997 18.8916 9.85325
1 24.5307 18.0903 9.88651
1 26.1118 18.8882 10.6661
1 26.9055 18.0945 10.6661
1 26.9123 18.9253 9.87042
1 26.1243 18.1027 9.8577
1 27.6992 18.8882 10.6661
1 28.4929 18.0945 10.6661
1 28.5014 18.879 9.88437
1 27.6831 18.1039 9.88318
1 29.2866 18.8882 10.6661
1 0.08031 18.0945 10.6661
1 0.054493 18.8745 9.87175
1 29.2986 18.0623 9.88824
1 0.874011 18.8882 10.6661
1 1.66771 18.0945 10.6661
1 1.66747 18.8897 9.87493
1 0.850491 18.1189 9.8623
1 2.46141 18.8882 10.6661
1 3.25511 18.0945 10.6661
1 3.26056 18.8739 9.85914
1 2.44775 18.1113 9.86546
1 4.04881 18.8882 10.6661
1 4.84251 18.0945 10.6661
1 4.86644 18.8777 9.88325
1 4.06073 18.1086 9.87951
1 5.63621 18.8882 10.6661
1 6.42991 18.0945 10.6661
1 6.41883 18.869 9.8768
1 5.63749 18.0794 9.88192
1 7.22361 18.8882 10.6661
1 8.01732 18.0945 10.6661
1 8.00436 18.9076 9.87313
1 7.24158 18.1078 9.89631
1 8.81102 18.8882 10.6661
1 9.60472 18.0945 10.6661
1 9.5855 18.8896 9.87431
1 8.79394 18.0968 9.86976
1 10.3984 18.8882 10.6661
1 11.1921 18.0945 10.6661
1 11.1992 18.893 9.84879
1 10.3812 18.0925 9.87995
1 11.9858 18.8882 10.6661
1 12.7795 18.0945 10.6661
1 12.7584 18.8862 9.86663
1 11.9889 18.0922 9.89284
1 13.5732 18.8882 10.6661
1 14.3669 18.0945 10.6661
1 14.3073 18.8794 9.84769
1 13.5358 18.0785 9.86514
1 15 17.3008 10.6661
1 15.7937 16.5071 10.6661
1 15.8416 17.3337 9.85733
1 15.066 16.4975 9.85879
1 16.5874 17.3008 10.6661
1 17.3811 16.5071 10.6661
1 17.3922 17.2871 9.87376
1 16.6136 16.4815 9.84333
1 18.1748 17.3008 10.6661
1 18.9685 16.5071 10.6661
1 18.9732 17.3044 9.88939
1 18.1869 16.4851 9.87081
1 19.7622 17.3008 10.6661
1 20.5559 16.5071 10.6661
1 20.5645 17.2825 9.87052
1 19.7727 16.4816 9.86691
1 21.3496 17.3008 10.6661
1 22.1433 16.5071 10.6661
1 22.1721 17.2967 9.88297
1 21.3901 16.5043 9.89253
1 22.937 17.3008 10.6661
1 23.7307 16.5071 10.6661
1 23.734 17.3142 9.84804
1 22.9659 16.4908 9.87911
1 24.5244 17.3008 10.6661
1 25.3181 16.5071 10.6661
1 25.3356 17.3026 9.87025
1 24.523 16.4942 9.86588
1 26.1118 17.3008 10.6661
1 26.9055 16.5071 10.6661
1 26.9216 17.2647 9.87204
1 26.1168 16.5032 9.88179
1 27.6992 17.3008 10.6661
1 28.4929 16.5071 10.6661
1 28.5133 17.2592 9.8856
1 27.7012 16.5079 9.87879
1 29.2866 17.3008 10.6661
1 0.08031 16.5071 10.6661
1 0.0829482 17.2867 9.87201
1 29.2709 16.4965 9.8797
1 0.874011 17.3008 10.6661
1 1.66771 16.5071 10.6661
1 1.64767 17.3364 9.88897
1 0.863731 16.5141 9.88372
1 2.46141 17.3008 10.6661
1 3.25511 16.5071 10.6661
1 3.27987 17.3128 9.85367
1 2.48361 16.487 9.85982
1 4.04881 17.3008 10.6661
1 4.84251 16.5071 10.6661
1 4.82297 17.3329 9.87165
1 4.04224 16.5037 9.87661
1 5.63621 17.3008 10.6661
1 6.42991 16.5071 10.6661
1 6.43422 17.3367 9.9137
1 5.63283 16.5263 9.87802
1 7.22361 17.3008 10.6661
1 8.01732 16.5071 10.6661
1 8.00434 17.3053 9.87925
1 7.19277 16.484 9.87877
1 8.81102 17.3008 10.6661
1 9.60472 16.5071 10.6661
1 9.58344 17.3199 9.8678
1 8.8004 16.4958 9.87434
1 10.3984 17.3008 10.6661
1 11.1921 16.5071 10.6661
1 11.1895 17.3112 9.89587
1 10.3883 16.5476 9.88624
1 11.9858 17.3008 10.6661
1 12.7795 16.5071 10.6661
1 12.7765 17.3158 9.8597
1 11.9802 16.5144 9.87128
1 13.5732 17.3008 10.6661
1 14.3669 16.5071 10.6661
1 14.3153 17.2971 9.8371
1 13.5589 16.5242 9.84829
1 15 15.7134 10.6661
1 15.7937 14.9197 10.6661
1 15.8527 15.6966 9.84972
1 15.0743 14.9427 9.84061
1 16.5874 15.7134 10.6661
1 17.3811 14.9197 10.6661
1 17.3893 15.7045 9.86355
1 16.6338 14.9125 9.86606
1 18.1748 15.7134 10.6661
1 18.9685 14.9197 10.6661
1 18.9902 15.6948 9.8567
1 18.1559 14.9079 9.89416
1 19.7622 15.7134 10.6661
1 20.5559 14.9197 10.6661
1 20.5552 15.7144 9.85501
1 19.7616 14.8995 9.87487
1 21.3496 15.7134 10.6661
1 22.1433 14.9197 10.6661
1 22.1324 15.699 9.88682
1 21.355 14.9448 9.88975
1 22.937 15.7134 10.6661
1 23.7307 14.9197 10.6661
1 23.7215 15.7071 9.90269
1 22.9278 14.921 9.86553
1 24.5244 15.7134 10.6661
1 25.3181 14.9197 10.6661
1 25.3104 15.7099 9.86454
1 24.5465 14.9178 9.87256
1 26.1118 15.7134 10.6661
1 26.9055 14.9197 10.6661
1 26.9174 15.6882 9.90014
1 26.1024 14.9147 9.85255
1 27.6992 15.7134 10.6661
1 28.4929 14.9197 10.6661
1 28.479 15.6962 9.8767
1 27.7129 14.8977 9.90138
1 29.2866 15.7134 10.6661
1 0.08031 14.9197 10.6661
1 0.0814006 15.726 9.86033
1 29.2856 14.9208 9.88069
1 0.874011 15.7134 10.6661
1 1.66771 14.9197 10.6661
1 1.67827 15.7336 9.85487
1 0.872048 14.9238 9.8901
1 2.46141 15.7134 10.6661
1 3.25511 14.9197 10.6661
1 3.26167 15.7142 9.86169
1 2.46332 14.9574 9.88008
1 4.04881 15.7134 10.6661
1 4.84251 14.9197 10.6661
1 4.83665 15.7038 9.90268
1 4.05968 14.919 9.8857
1 5.63621 15.7134 10.6661
1 6.42991 14.9197 10.6661
1 6.43522 15.7162 9.86067
1 5.63606 14.9233 9.86759
1 7.22361 15.7134 10.6661
1 8.01732 14.9197 10.6661
1 8.00252 15.7046 9.84742
1 7.21714 14.9007 9.86475
1 8.81102 15.7134 10.6661
1 9.60472 14.9197 10.6661
1 9.60464 15.7166 9.85311
1 8.82274 14.8998 9.88714
1 10.3984 15.7134 10.6661
1 11.1921 14.9197 10.6661
1 11.168 15.7314 9.883
1 10.3811 14.9301 9.87392
1 11.9858 15.7134 10.6661
1 12.7795 14.9197 10.6661
1 12.7709 15.7487 9.87221
1 11.9831 14.9349 9.89696
1 13.5732 15.7134 10.6661
1 14.3669 14.9197 10.6661
1 14.2999 15.7271 9.87289
1 13.5297 14.9207 9.86576
1 15 14.126 10.6661
1 15.7937 13.3323 10.6661
1 15.8167 14.125 9.87226
1 15.0566 13.3344 9.86997
1 16.5874 14.126 10.6661
1 17.3811 13.3323 10.6661
1 17.3832 14.0865 9.89262
1 16.596 13.324 9.88154
1 18.1748 14.126 10.6661
1 18.9685 13.3323 10.6661
1 18.9745 14.1384 9.90522
1 18.198 13.3324 9.88442
1 19.7622 14.126 10.6661
1 20.5559 13.3323 10.6661
1 20.5507 14.1456 9.88728
1 19.737 13.3265 9.87849
1 21.3496 14.126 10.6661
1 22.1433 13.3323 10.6661
1 22.1534 14.1223 9.88335
1 21.3662 13.3465 9.89953
1 22.937 14.126 10.6661
1 23.7307 13.3323 10.6661
1 23.71 14.1184 9.87222
1 22.9323 13.3345 9.86688
1 24.5244 14.126 10.6661
1 25.3181 13.3323 10.6661
1 25.3296 14.1216 9.87416
1 24.5193 13.3483 9.86505
1 26.1118 14.126 10.6661
1 26.9055 13.3323 10.6661
1 26.9116 14.1118 9.87009
1 26.128 13.3291 9.86761
1 27.6992 14.126 10.6661
1 28.4929 13.3323 10.6661
1 28.481 14.1183 9.89674
1 27.7124 13.3161 9.85833
1 29.2866 14.126 10.6661
1 0.08031 13.3323 10.6661
1 0.0883082 14.1191 9.87562
1 29.243 13.3318 9.85969
1 0.874011 14.126 10.6661
1 1.66771 13.3323 10.6661
1 1.65192 14.1188 9.85797
1 0.877774 13.3336 9.88239
1 2.46141 14.126 10.6661
1 3.25511 13.3323 10.6661
1 3.24697 14.1345 9.85996
1 2.48267 13.327 9.86427
1 4.04881 14.126 10.6661
1 4.84251 13.3323 10.6661
1 4.84009 14.1152 9.8636
1 4.04662 13.3611 9.88666
1 5.63621 14.126 10.6661
1 6.42991 13.3323 10.6661
1 6.41299 14.1065 9.87542
1 5.62461 13.3502 9.90135
1 7.22361 14.126 10.6661
1 8.01732 13.3323 10.6661
1 8.02339 14.1351 9.87139
1 7.19281 13.3397 9.86036
1 8.81102 14.126 10.6661
1 9.60472 13.3323 10.6661
1 9.61447 14.1397 9.87737
1 8.79498 13.3382 9.85809
1 10.3984 14.126 10.6661
1 11.1921 13.3323 10.6661
1 11.1787 14.1185 9.90507
1 10.392 13.3325 9.87608
1 11.9858 14.126 10.6661
1 12.7795 13.3323 10.6661
1 12.7735 14.1307 9.86357
1 11.9887 13.3566 9.8434
1 13.5732 14.126 10.6661
1 14.3669 13.3323 10.6661
1 14.2878 14.1527 9.82513
1 13.5382 13.3168 9.83937
1 15 12.5386 10.6661
1 15.7937 11.7449 10.6661
1 15.8364 12.5485 9.85711
1 15.0836 11.7256 9.83147
1 16.5874 12.5386 10.6661
1 17.3811 11.7449 10.6661
1 17.3898 12.5293 9.86167
1 16.6094 11.7239 9.84143
1 18.1748 12.5386 10.6661
1 18.9685 11.7449 10.6661
1 18.9769 12.5338 9.84746
1 18.1815 11.756 9.88121
1 19.7622 12.5386 10.6661
1 20.5559 11.7449 10.6661
1 20.5617 12.5544 9.86778
1 19.7615 11.7407 9.86967
1 21.3496 12.5386 10.6661
1 22.1433 11.7449 10.6661
1 22.144 12.5524 9.87401
1 21.3577 11.7295 9.90997
1 22.937 12.5386 10.6661
1 23.7307 11.7449 10.6661
1 23.7238 12.5396 9.8785
1 22.934 11.7415 9.86393
1 24.5244 12.5386 10.6661
1 25.3181 11.7449 10.6661
1 25.3268 12.5425 9.88108
1 24.5404 11.7371 9.88744
1 26.1118 12.5386 10.6661
1 26.9055 11.7449 10.6661
1 26.8937 12.5467 9.8892
1 26.1043 11.7304 9.86123
1 27.6992 12.5386 10.6661
1 28.4929 11.7449 10.6661
1 28.4829 12.5112 9.891
1 27.6964 11.7492 9.86262
1 29.2866 12.5386 10.6661
1 0.08031 11.7449 10.6661
1 0.0801448 12.5468 9.89024
1 29.3087 11.7558 9.87974
1 0.874011 12.5386 10.6661
1 1.66771 11.7449 10.6661
1 1.65677 12.5286 9.87343
1 0.84362 11.7314 9.90119
1 2.46141 12.5386 10.6661
1 3.25511 11.7449 10.6661
1 3.25095 12.5337 9.87983
1 2.45789 11.7347 9.87382
1 4.04881 12.5386 10.6661
1 4.84251 11.7449 10.6661
1 4.83505 12.5319 9.86717
1 4.07163 11.7362 9.89108
1 5.63621 12.5386 10.6661
1 6.42991 11.7449 10.6661
1 6.41066 12.5458 9.88463
1 5.62497 11.7402 9.88208
1 7.22361 12.5386 10.6661
1 8.01732 11.7449 10.6661
1 7.98454 12.5357 9.89059
1 7.21781 11.737 9.87308
1 8.81102 12.5386 10.6661
1 9.60472 11.7449 10.6661
1 9.60088 12.5536 9.87034
1 8.79698 11.755 9.8883
1 10.3984 12.5386 10.6661
1 11.1921 11.7449 10.6661
1 11.1887 12.5238 9.86111
1 10.373 11.7705 9.85758
1 11.9858 12.5386 10.6661
1 12.7795 11.7449 10.6661
1 12.7681 12.5237 9.85531
1 11.9606 11.7261 9.88378
1 13.5732 12.5386 10.6661
1 14.3669 11.7449 10.6661
1 14.3157 12.5321 9.85086
1 13.5238 11.7475 9.84972
1 15 10.9512 10.6661
1 15.7937 10.1575 10.6661
1 15.8219 10.9228 9.87828
1 15.0551 10.1487 9.8274
1 16.5874 10.9512 10.6661
1 17.3811 10.1575 10.6661
1 17.4119 10.9321 9.86523
1 16.6493 10.1343 9.8556
1 18.1748 10.9512 10.6661
1 18.9685 10.1575 10.6661
1 18.9928 10.9471 9.8757
1 18.1802 10.143 9.87836
1 19.7622 10.9512 10.6661
1 20.5559 10.1575 10.6661
1 20.5487 10.9563 9.87228
1 19.7639 10.1691 9.89254
1 21.3496 10.9512 10.6661
1 22.1433 10.1575 10.6661
1 22.1443 10.9262 9.87825
1 21.3345 10.1488 9.88899
1 22.937 10.9512 10.6661
1 23.7307 10.1575 10.6661
1 23.7419 10.9576 9.85801
1 22.9411 10.172 9.88811
1 24.5244 10.9512 10.6661
1 25.3181 10.1575 10.6661
1 25.3123 10.9626 9.87207
1 24.5106 10.1603 9.87419
1 26.1118 10.9512 10.6661
1 26.9055 10.1575 10.6661
1 26.8903 10.9424 9.86939
1 26.1026 10.1349 9.87488
1 27.6992 10.9512 10.6661
1 28.4929 10.1575 10.6661
1 28.5017 10.9602 9.86373
1 27.7059 10.1606 9.86619
1 29.2866 10.9512 10.6661
1 0.08031 10.1575 10.6661
1 0.0570181 10.935 9.89735
1 29.2763 10.1395 9.86201
1 0.874011 10.9512 10.6661
1 1.66771 10.1575 10.6661
1 1.62914 10.9466 9.88819
1 0.853467 10.1247 9.86837
1 2.46141 10.9512 10.6661
1 3.25511 10.1575 10.6661
1 3.28613 10.955 9.86022
1 2.44038 10.1658 9.88563
1 4.04881 10.9512 10.6661
1 4.84251 10.1575 10.6661
1 4.84443 10.9259 9.8986
1 4.04673 10.1661 9.88167
1 5.63621 10.9512 10.6661
1 6.42991 10.1575 10.6661
1 6.46007 10.9289 9.89458
1 5.63629 10.1645 9.87032
1 7.22361 10.9512 10.6661
1 8.01732 10.1575 10.6661
1 8.00056 10.9394 9.88108
1 7.2304 10.1495 9.88637
1 8.81102 10.9512 10.6661
1 9.60472 10.1575 10.6661
1 9.5942 10.9624 9.89479
1 8.79292 10.1512 9.88343
1 10.3984 10.9512 10.6661
1 11.1921 10.1575 10.6661
1 11.1548 10.9636 9.87642
1 10.4022 10.1287 9.87543
1 11.9858 10.9512 10.6661
1 12.7795 10.1575 10.6661
1 12.7573 10.9347 9.86665
1 11.9678 10.1454 9.87312
1 13.5732 10.9512 10.6661
1 14.3669 10.1575 10.6661
1 14.3063 10.9651 9.84747
1 13.5641 10.1744 9.87663
1 15 9.36379 10.6661
1 15.7937 8.57009 10.6661
1 15.8177 9.35145 9.85997
1 15.0512 8.55492 9.85718
1 16.5874 9.36379 10.6661
1 17.3811 8.57009 10.6661
1 17.4195 9.35308 9.85019
1 16.6287 8.56947 9.86275
1 18.1748 9.36379 10.6661
1 18.9685 8.57009 10.6661
1 18.9927 9.36343 9.88847
1 18.2036 8.57859 9.84743
1 19.7622 9.36379 10.6661
1 20.5559 8.57009 10.6661
1 20.5702 9.35794 9.87435
1 19.7737 8.57746 9.84959
1 21.3496 9.36379 10.6661
1 22.1433 8.57009 10.6661
1 22.1626 9.36826 9.8763
1 21.3769 8.58042 9.88874
1 22.937 9.36379 10.6661
1 23.7307 8.57009 10.6661
1 23.7281 9.37259 9.85697
1 22.9139 8.59986 9.86447
1 24.5244 9.36379 10.6661
1 25.3181 8.57009 10.6661
1 25.3208 9.3483 9.86872
1 24.52 8.56835 9.88559
1 26.1118 9.36379 10.6661
1 26.9055 8.57009 10.6661
1 26.9211 9.36449 9.87795
1 26.135 8.5623 9.87954
1 27.6992 9.36379 10.6661
1 28.4929 8.57009 10.6661
1 28.4742 9.38308 9.86972
1 27.6955 8.57239 9.86322
1 29.2866 9.36379 10.6661
1 0.08031 8.57009 10.6661
1 0.0759796 9.33875 9.85462
1 29.2892 8.56374 9.87857
1 0.874011 9.36379 10.6661
1 1.66771 8.57009 10.6661
1 1.6511 9.38416 9.85874
1 0.8639 8.5781 9.87108
1 2.46141 9.36379 10.6661
1 3.25511 8.57009 10.6661
1 3.2336 9.36547 9.87392
1 2.45774 8.59338 9.88657
1 4.04881 9.36379 10.6661
1 4.84251 8.57009 10.6661
1 4.84308 9.39998 9.86378
1 4.06345 8.57828 9.85902
1 5.63621 9.36379 10.6661
1 6.42991 8.57009 10.6661
1 6.42458 9.34711 9.85875
1 5.62259 8.59375 9.84103
1 7.22361 9.36379 10.6661
1 8.01732 8.57009 10.6661
1 8.02737 9.36535 9.87953
1 7.21421 8.55566 9.86936
1 8.81102 9.36379 10.6661
1 9.60472 8.57009 10.6661
1 9.60188 9.34834 9.88457
1 8.81473 8.56378 9.88862
1 10.3984 9.36379 10.6661
1 11.1921 8.57009 10.6661
1 11.1871 9.36069 9.89123
1 10.3959 8.58237 9.87216
1 11.9858 9.36379 10.6661
1 12.7795 8.57009 10.6661
1 12.7693 9.36454 9.8562
1 11.9556 8.55799 9.86276
1 13.5732 9.36379 10.6661
1 14.3669 8.57009 10.6661
1 14.3365 9.35819 9.83943
1 13.5409 8.56928 9.88269
1 15 7.77639 10.6661
1 15.7937 6.98268 10.6661
1 15.7897 7.79541 9.86717
1 15.0531 6.97842 9.81029
1 16.5874 7.77639 10.6661
1 17.3811 6.98268 10.6661
1 17.397 7.77199 9.84769
1 16.5921 7.00948 9.85701
1 18.1748 7.77639 10.6661
1 18.9685 6.98268 10.6661
1 18.998 7.79506 9.85725
1 18.189 6.99105 9.87322
1 19.7622 7.77639 10.6661
1 20.5559 6.98268 10.6661
1 20.5814 7.76832 9.88317
1 19.7758 7.01471 9.88121
1 21.3496 7.77639 10.6661
1 22.1433 6.98268 10.6661
1 22.1446 7.78923 9.87157
1 21.357 7.00144 9.86187
1 22.937 7.77639 10.6661
1 23.7307 6.98268 10.6661
1 23.7172 7.77699 9.88219
1 22.9282 6.94909 9.87241
1 24.5244 7.77639 10.6661
1 25.3181 6.98268 10.6661
1 25.3057 7.74041 9.86187
1 24.5402 6.9829 9.86754
1 26.1118 7.77639 10.6661
1 26.9055 6.98268 10.6661
1 26.9285 7.79127 9.85355
1 26.1229 6.96932 9.87294
1 27.6992 7.77639 10.6661
1 28.4929 6.98268 10.6661
1 28.4959 7.77961 9.89716
1 27.6973 6.98145 9.86638
1 29.2866 7.77639 10.6661
1 0.08031 6.98268 10.6661
1 0.0667243 7.77567 9.87009
1 29.2892 6.98192 9.88674
1 0.874011 7.77639 10.6661
1 1.66771 6.98268 10.6661
1 1.68953 7.8028 9.87903
1 0.872583 6.98057 9.85326
1 2.46141 7.77639 10.6661
1 3.25511 6.98268 10.6661
1 3.2537 7.78936 9.88463
1 2.46421 6.96908 9.8635
1 4.04881 7.77639 10.6661
1 4.84251 6.98268 10.6661
1 4.8342 7.77661 9.86822
1 4.03864 6.97217 9.84654
1 5.63621 7.77639 10.6661
1 6.42991 6.98268 10.6661
1 6.41095 7.7611 9.85533
1 5.6326 6.98518 9.87768
1 7.22361 7.77639 10.6661
1 8.01732 6.98268 10.6661
1 8.02234 7.78073 9.88774
1 7.25605 6.96925 9.86786
1 8.81102 7.77639 10.6661
1 9.60472 6.98268 10.6661
1 9.57915 7.77327 9.86077
1 8.79219 6.9832 9.87905
1 10.3984 7.77639 10.6661
1 11.1921 6.98268 10.6661
1 11.1773 7.79517 9.87831
1 10.3626 7.0023 9.89194
1 11.9858 7.77639 10.6661
1 12.7795 6.98268 10.6661
1 12.7713 7.79102 9.85546
1 11.9779 7.02797 9.86035
1 13.5732 7.77639 10.6661
1 14.3669 6.98268 10.6661
1 14.2867 7.77212 9.84143
1 13.5385 6.98072 9.86561
1 15 6.18898 10.6661
1 15.7937 5.39528 10.6661
1 15.8323 6.18121 9.85996
1 15.0671 5.42043 9.84556
1 16.5874 6.18898 10.6661
1 17.3811 5.39528 10.6661
1 17.3736 6.20756 9.85841
1 16.6053 5.40188 9.85077
1 18.1748 6.18898 10.6661
1 18.9685 5.39528 10.6661
1 18.9771 6.20218 9.85128
1 18.1772 5.40231 9.90013
1 19.7622 6.18898 10.6661
1 20.5559 5.39528 10.6661
1 20.5584 6.20381 9.89774
1 19.7724 5.40478 9.86023
1 21.3496 6.18898 10.6661
1 22.1433 5.39528 10.6661
1 22.1494 6.17765 9.87466