LAMMPS (7 Aug 2019)
#--- Brush Variables---#
variable      f      equal  1
variable      M      equal  $(v_f * 30)                 # The number of polymer chains on each brush
variable      M      equal  30                 
variable      N      string 30                 # The number of beads per chain
variable      xhi    equal  $(sqrt(v_f) * 20)                 # The width of the polymer Brush
variable      xhi    equal  20                 
variable      yhi    equal  $(sqrt(v_f) * 20)                 # The length of the polymer Brush
variable      yhi    equal  20                 
variable      wthick equal  3                  # The thickness of the walls wthick=1,2,3,4 gives 2,3,4,6 layers respectively

#--- Simulation Variables ---#
variable       Temp      index 1        #0.8 1 1.68                 #[Grest96]
variable       Tstep     equal 0.005                       # Timestep in Tau (default = 0.005)
variable       Nequil    equal 300000                       # Number of timesteps to equilibrate
variable       Ncomp     equal 700000                     # Number of timesteps to compress - until no more occilation of walls
variable       Nshear    equal 1000000      #2000000                      # Number of timesteps to shear - use approx 4ns for 10m/s
variable       Nthermo   equal 1000                        # Number of timesteps between thermo data prints
variable       Ndump_e   equal 10000
variable       Ndump_c   equal 10000                      # Number of timesteps per dump file (compression)
variable       Ndump_s   equal 10000                       # Number of timesteps per dump file (shear)
variable       Wall_v    index 1 # 0.005 0.05 0.1 0.5 1.5 0.001 0.003 0.2 0.0002 2                      # Wall velocity (A/fs) - equal to 10 m/s
variable       Pcomp     index 1 # 0.5 2 0.05 4 8

include        MDPBB.in
# This is an input script that creates a mono disperse polymer brush bilayer
# A coarse grained bead-spring model is used for the polymers which are end
# grafted to the surfaces of 2 opposing FCC walls at random sites.

#--- Initialization ---#

dimension     3
boundary      p p f
units         lj
atom_style    bond


#--- Moved to main.in ---#
#variable      M      equal  50                # The number of polymer chains on each brush
#variable      N      string 80                # The number of beads per chain
#variable      xhi    equal  15                # The width of the polymer Brush
#variable      yhi    equal  20                # The length of the polymer Brush
#variable      wthick equal  3                 # The thickness of the walls wthick=1,2,3,4 gives 2,3,4,6 layers respectively

variable      zhi    equal  $(1.1 * 2 * v_N + (2 * v_wthick))  # The initial height of the simulation box the value is such that no overlaps occur
variable      zhi    equal  72  
variable      z0     equal  $((v_zhi)/4 - (v_N)/30)          # This is the location at which to place the CoM of the molecule
variable      z0     equal  17          

print "The number of grafted chains = $(v_M)"
The number of grafted chains = 30
print "The number of beads per chain = $(v_N)"
The number of beads per chain = 30

variable      check  equal count(all)         # The number of atoms in the system
variable      ntwall equal count(twall)       # The number of atoms in the top wall
variable      nbwall equal count(bwall)       # The number of atoms in the bottom wall
variable      s equal 234897  #45335              # Seed for the RNG

print "zhi = ${zhi}"
zhi = 72

#--- Create the simulation box ---#

region        sbox block 0 ${xhi} 0 ${yhi} 0 ${zhi}
region        sbox block 0 20 0 ${yhi} 0 ${zhi}
region        sbox block 0 20 0 20 0 ${zhi}
region        sbox block 0 20 0 20 0 72
create_box    4 sbox bond/types 3 extra/bond/per/atom 12 extra/special/per/atom 2
Created orthogonal box = (0 0 0) to (20 20 72)
  2 by 2 by 8 MPI processor grid

mass          1 2.0                   # Wall atoms that are not grafted
mass          2 1.0                   # Grafted bead
mass          3 1.0                   # The rest of the beads on the chain
mass          4 2.0                   # Wall atoms that the chains are grafted to

bond_style    hybrid fene harmonic    # Finitely extensible linearly elastic bond between neighbouring beads
#bond_coeff    1 fene 30.0 1.5 0.0 0.0      # Values obtained from literature [Grest, Galushcko]
bond_coeff    1 fene 30.0 30.0 0.0 0.0
bond_coeff    2 fene 30.0 30.0 0.0 0.0       # This is the grafting bond between the polymer and the wall atom
special_bonds fene                    #
  0 = max # of 1-2 neighbors
  5 = max # of special neighbors
  special bonds CPU = 0.002244 secs
pair_style	  lj/cut 1.122462         # LJ potential with rc=2^1/6
#pair_coeff	  * * 1.0 1.0             # LJ potential acts between all atoms
pair_coeff    1 1 0.0 0.0
pair_coeff    1 2 1.0 1.0
pair_coeff    1 3 1.0 1.0
pair_coeff    2 2 1.0 1.0
pair_coeff    2 3 1.0 1.0
pair_coeff    2 4 1.0 1.0
pair_coeff    3 3 1.0 1.0
pair_coeff    3 4 1.0 1.0
pair_coeff    4 4 0.0 0.0
neighbor      10 bin                  #
neigh_modify  one 4000

#--- Create and read the molecule file ---#
python        BSMolf input 1 $N format i file BSMolf.py
python        BSMolf input 1 30 format i file BSMolf.py
python        BSMolf invoke    # Call the python function with number of beads to write the mol file
molecule      bs     bsmol.txt     # Read the Mol file to define the polymer chain
Read molecule bs:
  30 atoms with max type 2
  29 bonds with max type 1
  0 angles with max type 0
  0 dihedrals with max type 0
  0 impropers with max type 0

#--- Define the FCC wall region ---#
region        wall  block 0 ${xhi} 0 ${yhi} 0 ${wthick}
region        wall  block 0 20 0 ${yhi} 0 ${wthick}
region        wall  block 0 20 0 20 0 ${wthick}
region        wall  block 0 20 0 20 0 3
lattice       fcc 1
Lattice spacing in x,y,z = 1.5874 1.5874 1.5874

#--- Create the Top Brush  (At the bottom then rotate 180 degrees to top) ---#

create_atoms  1 region wall
Created 1352 atoms
  create_atoms CPU = 0.00188994 secs
group         twall  region wall
1352 atoms in group twall
#group         tsurf  region wsurf

# A loop to insert the Chains into the sim box
variable      i loop $M                                   # Index to insert N total number of chains
variable      i loop 30                                   
label         loop                                        # Start of loop
variable      randni equal round(random(1,${ntwall},$s))  # Pick a random "top" wall atom
variable      randni equal round(random(1,1352,$s))  
variable      randni equal round(random(1,1352,234897))  
variable      randatomi equal ${randni}                   # This is to obtain an integer number for atom-id
variable      randatomi equal 850                   
variable      randzi equal z[${randatomi}]                # Determine the z coordinate of the chosen atom
variable      randzi equal z[850]                
# if the chosen atom is not a surface atom then restart the loop
if            "${randzi} < $(v_wthick - 0.7)" then "jump MDPBB.in loop"
set           atom ${randatomi} type 4                    # Set this grafted wall atom as a new type
set           atom 850 type 4                    
  1 settings made for type
group         twg id ${randatomi}                         # Add this atom to a top-wall-grafted group
group         twg id 850                         
1 atoms in group twg
variable      twgcount equal count(twg)
print         "twg contains ${twgcount}"
twg contains 1
print         "i = $(v_i)"                                # The index i should always be equal to the number of atom in twg
i = 1
variable      x0 equal x[${randatomi}]                    # Determine its x-coord
variable      x0 equal x[850]                    
variable      y0 equal y[${randatomi}]                    # Determine its y-coord
variable      y0 equal y[850]                    
variable      check0 equal ${check}                       # Count the number of atoms in the simulation
variable      check0 equal 1352                       
variable      b equal ${check}+1                          # The grafted bead id will be one higher after being inserted
variable      b equal 1352+1                          
if            "${twgcount} != $(v_i)" then "jump MDPBB.in loop"
# Otherwise insert the chain directly above the chosen wall atom pointing perpendicular to the wall
create_atoms  1 single ${x0} ${y0} ${z0} mol bs 24987 units box remap yes rotate 0 0 0 1
create_atoms  1 single 11.9055078897615 ${y0} ${z0} mol bs 24987 units box remap yes rotate 0 0 0 1
create_atoms  1 single 11.9055078897615 0 ${z0} mol bs 24987 units box remap yes rotate 0 0 0 1
create_atoms  1 single 11.9055078897615 0 17 mol bs 24987 units box remap yes rotate 0 0 0 1
Created 30 atoms
  create_atoms CPU = 0.00247788 secs
variable      check1 equal ${check}               # Count the new total number of atoms
variable      check1 equal 1382               
# Check that the molecule has indeed been inserted (This check is no longer an issue).
if            "${check1} != ${check0}" then "create_bonds  single/bond 2 ${randatomi} $b" "next i"
create_bonds  single/bond 2 ${randatomi} $b
create_bonds  single/bond 2 850 $b
create_bonds  single/bond 2 850 1353
  2 = max # of 1-2 neighbors
  5 = max # of special neighbors
  special bonds CPU = 0.000889063 secs
next i
jump MDPBB.in loop    # End of the loop
variable      randni equal round(random(1,${ntwall},$s))  # Pick a random "top" wall atom
variable      randni equal round(random(1,1352,$s))  
variable      randni equal round(random(1,1352,234897))  
variable      randatomi equal ${randni}                   # This is to obtain an integer number for atom-id
variable      randatomi equal 213                   
variable      randzi equal z[${randatomi}]                # Determine the z coordinate of the chosen atom
variable      randzi equal z[213]                
# if the chosen atom is not a surface atom then restart the loop
if            "${randzi} < $(v_wthick - 0.7)" then "jump MDPBB.in loop"
jump MDPBB.in loop
variable      randni equal round(random(1,${ntwall},$s))  # Pick a random "top" wall atom
variable      randni equal round(random(1,1352,$s))  
variable      randni equal round(random(1,1352,234897))  
variable      randatomi equal ${randni}                   # This is to obtain an integer number for atom-id
variable      randatomi equal 1022                   
variable      randzi equal z[${randatomi}]                # Determine the z coordinate of the chosen atom
variable      randzi equal z[1022]                
# if the chosen atom is not a surface atom then restart the loop
if            "${randzi} < $(v_wthick - 0.7)" then "jump MDPBB.in loop"
jump MDPBB.in loop
variable      randni equal round(random(1,${ntwall},$s))  # Pick a random "top" wall atom
variable      randni equal round(random(1,1352,$s))  
variable      randni equal round(random(1,1352,234897))  
variable      randatomi equal ${randni}                   # This is to obtain an integer number for atom-id
variable      randatomi equal 1031                   
variable      randzi equal z[${randatomi}]                # Determine the z coordinate of the chosen atom
variable      randzi equal z[1031]                
# if the chosen atom is not a surface atom then restart the loop
if            "${randzi} < $(v_wthick - 0.7)" then "jump MDPBB.in loop"
jump MDPBB.in loop
variable      randni equal round(random(1,${ntwall},$s))  # Pick a random "top" wall atom
variable      randni equal round(random(1,1352,$s))  
variable      randni equal round(random(1,1352,234897))  
variable      randatomi equal ${randni}                   # This is to obtain an integer number for atom-id
variable      randatomi equal 982                   
variable      randzi equal z[${randatomi}]                # Determine the z coordinate of the chosen atom
variable      randzi equal z[982]                
# if the chosen atom is not a surface atom then restart the loop
if            "${randzi} < $(v_wthick - 0.7)" then "jump MDPBB.in loop"
jump MDPBB.in loop
variable      randni equal round(random(1,${ntwall},$s))  # Pick a random "top" wall atom
variable      randni equal round(random(1,1352,$s))  
variable      randni equal round(random(1,1352,234897))  
variable      randatomi equal ${randni}                   # This is to obtain an integer number for atom-id
variable      randatomi equal 1332                   
variable      randzi equal z[${randatomi}]                # Determine the z coordinate of the chosen atom
variable      randzi equal z[1332]                
# if the chosen atom is not a surface atom then restart the loop
if            "${randzi} < $(v_wthick - 0.7)" then "jump MDPBB.in loop"
set           atom ${randatomi} type 4                    # Set this grafted wall atom as a new type
set           atom 1332 type 4                    
  1 settings made for type
group         twg id ${randatomi}                         # Add this atom to a top-wall-grafted group
group         twg id 1332                         
2 atoms in group twg
variable      twgcount equal count(twg)
print         "twg contains ${twgcount}"
twg contains 2
print         "i = $(v_i)"                                # The index i should always be equal to the number of atom in twg
i = 2
variable      x0 equal x[${randatomi}]                    # Determine its x-coord
variable      x0 equal x[1332]                    
variable      y0 equal y[${randatomi}]                    # Determine its y-coord
variable      y0 equal y[1332]                    
variable      check0 equal ${check}                       # Count the number of atoms in the simulation
variable      check0 equal 1382                       
variable      b equal ${check}+1                          # The grafted bead id will be one higher after being inserted
variable      b equal 1382+1                          
if            "${twgcount} != $(v_i)" then "jump MDPBB.in loop"
# Otherwise insert the chain directly above the chosen wall atom pointing perpendicular to the wall
create_atoms  1 single ${x0} ${y0} ${z0} mol bs 24987 units box remap yes rotate 0 0 0 1
create_atoms  1 single 11.1118073637774 ${y0} ${z0} mol bs 24987 units box remap yes rotate 0 0 0 1
create_atoms  1 single 11.1118073637774 19.8425131496025 ${z0} mol bs 24987 units box remap yes rotate 0 0 0 1
create_atoms  1 single 11.1118073637774 19.8425131496025 17 mol bs 24987 units box remap yes rotate 0 0 0 1
Created 30 atoms
  create_atoms CPU = 0.00227308 secs
variable      check1 equal ${check}               # Count the new total number of atoms
variable      check1 equal 1412               
# Check that the molecule has indeed been inserted (This check is no longer an issue).
if            "${check1} != ${check0}" then "create_bonds  single/bond 2 ${randatomi} $b" "next i"
create_bonds  single/bond 2 ${randatomi} $b
create_bonds  single/bond 2 1332 $b
create_bonds  single/bond 2 1332 1383
  2 = max # of 1-2 neighbors
  5 = max # of special neighbors
  special bonds CPU = 0.000642061 secs
next i
jump MDPBB.in loop    # End of the loop
variable      randni equal round(random(1,${ntwall},$s))  # Pick a random "top" wall atom
variable      randni equal round(random(1,1352,$s))  
variable      randni equal round(random(1,1352,234897))  
variable      randatomi equal ${randni}                   # This is to obtain an integer number for atom-id
variable      randatomi equal 643                   
variable      randzi equal z[${randatomi}]                # Determine the z coordinate of the chosen atom
variable      randzi equal z[643]                
# if the chosen atom is not a surface atom then restart the loop
if            "${randzi} < $(v_wthick - 0.7)" then "jump MDPBB.in loop"
set           atom ${randatomi} type 4                    # Set this grafted wall atom as a new type
set           atom 643 type 4                    
  1 settings made for type
group         twg id ${randatomi}                         # Add this atom to a top-wall-grafted group
group         twg id 643                         
3 atoms in group twg
variable      twgcount equal count(twg)
print         "twg contains ${twgcount}"
twg contains 3
print         "i = $(v_i)"                                # The index i should always be equal to the number of atom in twg
i = 3
variable      x0 equal x[${randatomi}]                    # Determine its x-coord
variable      x0 equal x[643]                    
variable      y0 equal y[${randatomi}]                    # Determine its y-coord
variable      y0 equal y[643]                    
variable      check0 equal ${check}                       # Count the number of atoms in the simulation
variable      check0 equal 1412                       
variable      b equal ${check}+1                          # The grafted bead id will be one higher after being inserted
variable      b equal 1412+1                          
if            "${twgcount} != $(v_i)" then "jump MDPBB.in loop"
# Otherwise insert the chain directly above the chosen wall atom pointing perpendicular to the wall
create_atoms  1 single ${x0} ${y0} ${z0} mol bs 24987 units box remap yes rotate 0 0 0 1
create_atoms  1 single 7.1433047338569 ${y0} ${z0} mol bs 24987 units box remap yes rotate 0 0 0 1
create_atoms  1 single 7.1433047338569 17.4614115716502 ${z0} mol bs 24987 units box remap yes rotate 0 0 0 1
create_atoms  1 single 7.1433047338569 17.4614115716502 17 mol bs 24987 units box remap yes rotate 0 0 0 1
Created 30 atoms
  create_atoms CPU = 0.00226188 secs
variable      check1 equal ${check}               # Count the new total number of atoms
variable      check1 equal 1442               
# Check that the molecule has indeed been inserted (This check is no longer an issue).
if            "${check1} != ${check0}" then "create_bonds  single/bond 2 ${randatomi} $b" "next i"
create_bonds  single/bond 2 ${randatomi} $b
create_bonds  single/bond 2 643 $b
create_bonds  single/bond 2 643 1413
  2 = max # of 1-2 neighbors
  5 = max # of special neighbors
  special bonds CPU = 0.000627995 secs
next i
jump MDPBB.in loop    # End of the loop
variable      randni equal round(random(1,${ntwall},$s))  # Pick a random "top" wall atom
variable      randni equal round(random(1,1352,$s))  
variable      randni equal round(random(1,1352,234897))  
variable      randatomi equal ${randni}                   # This is to obtain an integer number for atom-id
variable      randatomi equal 454                   
variable      randzi equal z[${randatomi}]                # Determine the z coordinate of the chosen atom
variable      randzi equal z[454]                
# if the chosen atom is not a surface atom then restart the loop
if            "${randzi} < $(v_wthick - 0.7)" then "jump MDPBB.in loop"
jump MDPBB.in loop
variable      randni equal round(random(1,${ntwall},$s))  # Pick a random "top" wall atom
variable      randni equal round(random(1,1352,$s))  
variable      randni equal round(random(1,1352,234897))  
variable      randatomi equal ${randni}                   # This is to obtain an integer number for atom-id
variable      randatomi equal 585                   
variable      randzi equal z[${randatomi}]                # Determine the z coordinate of the chosen atom
variable      randzi equal z[585]                
# if the chosen atom is not a surface atom then restart the loop
if            "${randzi} < $(v_wthick - 0.7)" then "jump MDPBB.in loop"
jump MDPBB.in loop
variable      randni equal round(random(1,${ntwall},$s))  # Pick a random "top" wall atom
variable      randni equal round(random(1,1352,$s))  
variable      randni equal round(random(1,1352,234897))  
variable      randatomi equal ${randni}                   # This is to obtain an integer number for atom-id
variable      randatomi equal 979                   
variable      randzi equal z[${randatomi}]                # Determine the z coordinate of the chosen atom
variable      randzi equal z[979]                
# if the chosen atom is not a surface atom then restart the loop
if            "${randzi} < $(v_wthick - 0.7)" then "jump MDPBB.in loop"
jump MDPBB.in loop
variable      randni equal round(random(1,${ntwall},$s))  # Pick a random "top" wall atom
variable      randni equal round(random(1,1352,$s))  
variable      randni equal round(random(1,1352,234897))  
variable      randatomi equal ${randni}                   # This is to obtain an integer number for atom-id
variable      randatomi equal 1211                   
variable      randzi equal z[${randatomi}]                # Determine the z coordinate of the chosen atom
variable      randzi equal z[1211]                
# if the chosen atom is not a surface atom then restart the loop
if            "${randzi} < $(v_wthick - 0.7)" then "jump MDPBB.in loop"
jump MDPBB.in loop
variable      randni equal round(random(1,${ntwall},$s))  # Pick a random "top" wall atom
variable      randni equal round(random(1,1352,$s))  
variable      randni equal round(random(1,1352,234897))  
variable      randatomi equal ${randni}                   # This is to obtain an integer number for atom-id
variable      randatomi equal 11                   
variable      randzi equal z[${randatomi}]                # Determine the z coordinate of the chosen atom
variable      randzi equal z[11]                
# if the chosen atom is not a surface atom then restart the loop
if            "${randzi} < $(v_wthick - 0.7)" then "jump MDPBB.in loop"
jump MDPBB.in loop
variable      randni equal round(random(1,${ntwall},$s))  # Pick a random "top" wall atom
variable      randni equal round(random(1,1352,$s))  
variable      randni equal round(random(1,1352,234897))  
variable      randatomi equal ${randni}                   # This is to obtain an integer number for atom-id
variable      randatomi equal 258                   
variable      randzi equal z[${randatomi}]                # Determine the z coordinate of the chosen atom
variable      randzi equal z[258]                
# if the chosen atom is not a surface atom then restart the loop
if            "${randzi} < $(v_wthick - 0.7)" then "jump MDPBB.in loop"
set           atom ${randatomi} type 4                    # Set this grafted wall atom as a new type
set           atom 258 type 4                    
  1 settings made for type
group         twg id ${randatomi}                         # Add this atom to a top-wall-grafted group
group         twg id 258                         
4 atoms in group twg
variable      twgcount equal count(twg)
print         "twg contains ${twgcount}"
twg contains 4
print         "i = $(v_i)"                                # The index i should always be equal to the number of atom in twg
i = 4
variable      x0 equal x[${randatomi}]                    # Determine its x-coord
variable      x0 equal x[258]                    
variable      y0 equal y[${randatomi}]                    # Determine its y-coord
variable      y0 equal y[258]                    
variable      check0 equal ${check}                       # Count the number of atoms in the simulation
variable      check0 equal 1442                       
variable      b equal ${check}+1                          # The grafted bead id will be one higher after being inserted
variable      b equal 1442+1                          
if            "${twgcount} != $(v_i)" then "jump MDPBB.in loop"
# Otherwise insert the chain directly above the chosen wall atom pointing perpendicular to the wall
create_atoms  1 single ${x0} ${y0} ${z0} mol bs 24987 units box remap yes rotate 0 0 0 1
create_atoms  1 single 3.9685026299205 ${y0} ${z0} mol bs 24987 units box remap yes rotate 0 0 0 1
create_atoms  1 single 3.9685026299205 4.7622031559046 ${z0} mol bs 24987 units box remap yes rotate 0 0 0 1
create_atoms  1 single 3.9685026299205 4.7622031559046 17 mol bs 24987 units box remap yes rotate 0 0 0 1
Created 30 atoms
  create_atoms CPU = 0.00226092 secs
variable      check1 equal ${check}               # Count the new total number of atoms
variable      check1 equal 1472               
# Check that the molecule has indeed been inserted (This check is no longer an issue).
if            "${check1} != ${check0}" then "create_bonds  single/bond 2 ${randatomi} $b" "next i"
create_bonds  single/bond 2 ${randatomi} $b
create_bonds  single/bond 2 258 $b
create_bonds  single/bond 2 258 1443
  2 = max # of 1-2 neighbors
  5 = max # of special neighbors
  special bonds CPU = 0.000653028 secs
next i
jump MDPBB.in loop    # End of the loop
variable      randni equal round(random(1,${ntwall},$s))  # Pick a random "top" wall atom
variable      randni equal round(random(1,1352,$s))  
variable      randni equal round(random(1,1352,234897))  
variable      randatomi equal ${randni}                   # This is to obtain an integer number for atom-id
variable      randatomi equal 442                   
variable      randzi equal z[${randatomi}]                # Determine the z coordinate of the chosen atom
variable      randzi equal z[442]                
# if the chosen atom is not a surface atom then restart the loop
if            "${randzi} < $(v_wthick - 0.7)" then "jump MDPBB.in loop"
jump MDPBB.in loop
variable      randni equal round(random(1,${ntwall},$s))  # Pick a random "top" wall atom
variable      randni equal round(random(1,1352,$s))  
variable      randni equal round(random(1,1352,234897))  
variable      randatomi equal ${randni}                   # This is to obtain an integer number for atom-id
variable      randatomi equal 1095                   
variable      randzi equal z[${randatomi}]                # Determine the z coordinate of the chosen atom
variable      randzi equal z[1095]                
# if the chosen atom is not a surface atom then restart the loop
if            "${randzi} < $(v_wthick - 0.7)" then "jump MDPBB.in loop"
jump MDPBB.in loop
variable      randni equal round(random(1,${ntwall},$s))  # Pick a random "top" wall atom
variable      randni equal round(random(1,1352,$s))  
variable      randni equal round(random(1,1352,234897))  
variable      randatomi equal ${randni}                   # This is to obtain an integer number for atom-id
variable      randatomi equal 960                   
variable      randzi equal z[${randatomi}]                # Determine the z coordinate of the chosen atom
variable      randzi equal z[960]                
# if the chosen atom is not a surface atom then restart the loop
if            "${randzi} < $(v_wthick - 0.7)" then "jump MDPBB.in loop"
jump MDPBB.in loop
variable      randni equal round(random(1,${ntwall},$s))  # Pick a random "top" wall atom
variable      randni equal round(random(1,1352,$s))  
variable      randni equal round(random(1,1352,234897))  
variable      randatomi equal ${randni}                   # This is to obtain an integer number for atom-id
variable      randatomi equal 931                   
variable      randzi equal z[${randatomi}]                # Determine the z coordinate of the chosen atom
variable      randzi equal z[931]                
# if the chosen atom is not a surface atom then restart the loop
if            "${randzi} < $(v_wthick - 0.7)" then "jump MDPBB.in loop"
jump MDPBB.in loop
variable      randni equal round(random(1,${ntwall},$s))  # Pick a random "top" wall atom
variable      randni equal round(random(1,1352,$s))  
variable      randni equal round(random(1,1352,234897))  
variable      randatomi equal ${randni}                   # This is to obtain an integer number for atom-id
variable      randatomi equal 755                   
variable      randzi equal z[${randatomi}]                # Determine the z coordinate of the chosen atom
variable      randzi equal z[755]                
# if the chosen atom is not a surface atom then restart the loop
if            "${randzi} < $(v_wthick - 0.7)" then "jump MDPBB.in loop"
jump MDPBB.in loop
variable      randni equal round(random(1,${ntwall},$s))  # Pick a random "top" wall atom
variable      randni equal round(random(1,1352,$s))  
variable      randni equal round(random(1,1352,234897))  
variable      randatomi equal ${randni}                   # This is to obtain an integer number for atom-id
variable      randatomi equal 1053                   
variable      randzi equal z[${randatomi}]                # Determine the z coordinate of the chosen atom
variable      randzi equal z[1053]                
# if the chosen atom is not a surface atom then restart the loop
if            "${randzi} < $(v_wthick - 0.7)" then "jump MDPBB.in loop"
jump MDPBB.in loop
variable      randni equal round(random(1,${ntwall},$s))  # Pick a random "top" wall atom
variable      randni equal round(random(1,1352,$s))  
variable      randni equal round(random(1,1352,234897))  
variable      randatomi equal ${randni}                   # This is to obtain an integer number for atom-id
variable      randatomi equal 832                   
variable      randzi equal z[${randatomi}]                # Determine the z coordinate of the chosen atom
variable      randzi equal z[832]                
# if the chosen atom is not a surface atom then restart the loop
if            "${randzi} < $(v_wthick - 0.7)" then "jump MDPBB.in loop"
jump MDPBB.in loop
variable      randni equal round(random(1,${ntwall},$s))  # Pick a random "top" wall atom
variable      randni equal round(random(1,1352,$s))  
variable      randni equal round(random(1,1352,234897))  
variable      randatomi equal ${randni}                   # This is to obtain an integer number for atom-id
variable      randatomi equal 838                   
variable      randzi equal z[${randatomi}]                # Determine the z coordinate of the chosen atom
variable      randzi equal z[838]                
# if the chosen atom is not a surface atom then restart the loop
if            "${randzi} < $(v_wthick - 0.7)" then "jump MDPBB.in loop"
jump MDPBB.in loop
variable      randni equal round(random(1,${ntwall},$s))  # Pick a random "top" wall atom
variable      randni equal round(random(1,1352,$s))  
variable      randni equal round(random(1,1352,234897))  
variable      randatomi equal ${randni}                   # This is to obtain an integer number for atom-id
variable      randatomi equal 163                   
variable      randzi equal z[${randatomi}]                # Determine the z coordinate of the chosen atom
variable      randzi equal z[163]                
# if the chosen atom is not a surface atom then restart the loop
if            "${randzi} < $(v_wthick - 0.7)" then "jump MDPBB.in loop"
jump MDPBB.in loop
variable      randni equal round(random(1,${ntwall},$s))  # Pick a random "top" wall atom
variable      randni equal round(random(1,1352,$s))  
variable      randni equal round(random(1,1352,234897))  
variable      randatomi equal ${randni}                   # This is to obtain an integer number for atom-id
variable      randatomi equal 1178                   
variable      randzi equal z[${randatomi}]                # Determine the z coordinate of the chosen atom
variable      randzi equal z[1178]                
# if the chosen atom is not a surface atom then restart the loop
if            "${randzi} < $(v_wthick - 0.7)" then "jump MDPBB.in loop"
jump MDPBB.in loop
variable      randni equal round(random(1,${ntwall},$s))  # Pick a random "top" wall atom
variable      randni equal round(random(1,1352,$s))  
variable      randni equal round(random(1,1352,234897))  
variable      randatomi equal ${randni}                   # This is to obtain an integer number for atom-id
variable      randatomi equal 814                   
variable      randzi equal z[${randatomi}]                # Determine the z coordinate of the chosen atom
variable      randzi equal z[814]                
# if the chosen atom is not a surface atom then restart the loop
if            "${randzi} < $(v_wthick - 0.7)" then "jump MDPBB.in loop"
jump MDPBB.in loop
variable      randni equal round(random(1,${ntwall},$s))  # Pick a random "top" wall atom
variable      randni equal round(random(1,1352,$s))  
variable      randni equal round(random(1,1352,234897))  
variable      randatomi equal ${randni}                   # This is to obtain an integer number for atom-id
variable      randatomi equal 1242                   
variable      randzi equal z[${randatomi}]                # Determine the z coordinate of the chosen atom
variable      randzi equal z[1242]                
# if the chosen atom is not a surface atom then restart the loop
if            "${randzi} < $(v_wthick - 0.7)" then "jump MDPBB.in loop"
jump MDPBB.in loop
variable      randni equal round(random(1,${ntwall},$s))  # Pick a random "top" wall atom
variable      randni equal round(random(1,1352,$s))  
variable      randni equal round(random(1,1352,234897))  
variable      randatomi equal ${randni}                   # This is to obtain an integer number for atom-id
variable      randatomi equal 942                   
variable      randzi equal z[${randatomi}]                # Determine the z coordinate of the chosen atom
variable      randzi equal z[942]                
# if the chosen atom is not a surface atom then restart the loop
if            "${randzi} < $(v_wthick - 0.7)" then "jump MDPBB.in loop"
jump MDPBB.in loop
variable      randni equal round(random(1,${ntwall},$s))  # Pick a random "top" wall atom
variable      randni equal round(random(1,1352,$s))  
variable      randni equal round(random(1,1352,234897))  
variable      randatomi equal ${randni}                   # This is to obtain an integer number for atom-id
variable      randatomi equal 1214                   
variable      randzi equal z[${randatomi}]                # Determine the z coordinate of the chosen atom
variable      randzi equal z[1214]                
# if the chosen atom is not a surface atom then restart the loop
if            "${randzi} < $(v_wthick - 0.7)" then "jump MDPBB.in loop"
set           atom ${randatomi} type 4                    # Set this grafted wall atom as a new type
set           atom 1214 type 4                    
  1 settings made for type
group         twg id ${randatomi}                         # Add this atom to a top-wall-grafted group
group         twg id 1214                         
5 atoms in group twg
variable      twgcount equal count(twg)
print         "twg contains ${twgcount}"
twg contains 5
print         "i = $(v_i)"                                # The index i should always be equal to the number of atom in twg
i = 5
variable      x0 equal x[${randatomi}]                    # Determine its x-coord
variable      x0 equal x[1214]                    
variable      y0 equal y[${randatomi}]                    # Determine its y-coord
variable      y0 equal y[1214]                    
variable      check0 equal ${check}                       # Count the number of atoms in the simulation
variable      check0 equal 1472                       
variable      b equal ${check}+1                          # The grafted bead id will be one higher after being inserted
variable      b equal 1472+1                          
if            "${twgcount} != $(v_i)" then "jump MDPBB.in loop"
# Otherwise insert the chain directly above the chosen wall atom pointing perpendicular to the wall
create_atoms  1 single ${x0} ${y0} ${z0} mol bs 24987 units box remap yes rotate 0 0 0 1
create_atoms  1 single 15.874010519682 ${y0} ${z0} mol bs 24987 units box remap yes rotate 0 0 0 1
create_atoms  1 single 15.874010519682 11.9055078897615 ${z0} mol bs 24987 units box remap yes rotate 0 0 0 1
create_atoms  1 single 15.874010519682 11.9055078897615 17 mol bs 24987 units box remap yes rotate 0 0 0 1
Created 30 atoms
  create_atoms CPU = 0.000260115 secs
variable      check1 equal ${check}               # Count the new total number of atoms
variable      check1 equal 1502               
# Check that the molecule has indeed been inserted (This check is no longer an issue).
if            "${check1} != ${check0}" then "create_bonds  single/bond 2 ${randatomi} $b" "next i"
create_bonds  single/bond 2 ${randatomi} $b
create_bonds  single/bond 2 1214 $b
create_bonds  single/bond 2 1214 1473
  2 = max # of 1-2 neighbors
  5 = max # of special neighbors
  special bonds CPU = 0.000612974 secs
next i
jump MDPBB.in loop    # End of the loop
variable      randni equal round(random(1,${ntwall},$s))  # Pick a random "top" wall atom
variable      randni equal round(random(1,1352,$s))  
variable      randni equal round(random(1,1352,234897))  
variable      randatomi equal ${randni}                   # This is to obtain an integer number for atom-id
variable      randatomi equal 796                   
variable      randzi equal z[${randatomi}]                # Determine the z coordinate of the chosen atom
variable      randzi equal z[796]                
# if the chosen atom is not a surface atom then restart the loop
if            "${randzi} < $(v_wthick - 0.7)" then "jump MDPBB.in loop"
jump MDPBB.in loop
variable      randni equal round(random(1,${ntwall},$s))  # Pick a random "top" wall atom
variable      randni equal round(random(1,1352,$s))  
variable      randni equal round(random(1,1352,234897))  
variable      randatomi equal ${randni}                   # This is to obtain an integer number for atom-id
variable      randatomi equal 1150                   
variable      randzi equal z[${randatomi}]                # Determine the z coordinate of the chosen atom
variable      randzi equal z[1150]                
# if the chosen atom is not a surface atom then restart the loop
if            "${randzi} < $(v_wthick - 0.7)" then "jump MDPBB.in loop"
jump MDPBB.in loop
variable      randni equal round(random(1,${ntwall},$s))  # Pick a random "top" wall atom
variable      randni equal round(random(1,1352,$s))  
variable      randni equal round(random(1,1352,234897))  
variable      randatomi equal ${randni}                   # This is to obtain an integer number for atom-id
variable      randatomi equal 1133                   
variable      randzi equal z[${randatomi}]                # Determine the z coordinate of the chosen atom
variable      randzi equal z[1133]                
# if the chosen atom is not a surface atom then restart the loop
if            "${randzi} < $(v_wthick - 0.7)" then "jump MDPBB.in loop"
jump MDPBB.in loop
variable      randni equal round(random(1,${ntwall},$s))  # Pick a random "top" wall atom
variable      randni equal round(random(1,1352,$s))  
variable      randni equal round(random(1,1352,234897))  
variable      randatomi equal ${randni}                   # This is to obtain an integer number for atom-id
variable      randatomi equal 563                   
variable      randzi equal z[${randatomi}]                # Determine the z coordinate of the chosen atom
variable      randzi equal z[563]                
# if the chosen atom is not a surface atom then restart the loop
if            "${randzi} < $(v_wthick - 0.7)" then "jump MDPBB.in loop"
jump MDPBB.in loop
variable      randni equal round(random(1,${ntwall},$s))  # Pick a random "top" wall atom
variable      randni equal round(random(1,1352,$s))  
variable      randni equal round(random(1,1352,234897))  
variable      randatomi equal ${randni}                   # This is to obtain an integer number for atom-id
variable      randatomi equal 1350                   
variable      randzi equal z[${randatomi}]                # Determine the z coordinate of the chosen atom
variable      randzi equal z[1350]                
# if the chosen atom is not a surface atom then restart the loop
if            "${randzi} < $(v_wthick - 0.7)" then "jump MDPBB.in loop"
jump MDPBB.in loop
variable      randni equal round(random(1,${ntwall},$s))  # Pick a random "top" wall atom
variable      randni equal round(random(1,1352,$s))  
variable      randni equal round(random(1,1352,234897))  
variable      randatomi equal ${randni}                   # This is to obtain an integer number for atom-id
variable      randatomi equal 1318                   
variable      randzi equal z[${randatomi}]                # Determine the z coordinate of the chosen atom
variable      randzi equal z[1318]                
# if the chosen atom is not a surface atom then restart the loop
if            "${randzi} < $(v_wthick - 0.7)" then "jump MDPBB.in loop"
set           atom ${randatomi} type 4                    # Set this grafted wall atom as a new type
set           atom 1318 type 4                    
  1 settings made for type
group         twg id ${randatomi}                         # Add this atom to a top-wall-grafted group
group         twg id 1318                         
6 atoms in group twg
variable      twgcount equal count(twg)
print         "twg contains ${twgcount}"
twg contains 6
print         "i = $(v_i)"                                # The index i should always be equal to the number of atom in twg
i = 6
variable      x0 equal x[${randatomi}]                    # Determine its x-coord
variable      x0 equal x[1318]                    
variable      y0 equal y[${randatomi}]                    # Determine its y-coord
variable      y0 equal y[1318]                    
variable      check0 equal ${check}                       # Count the number of atoms in the simulation
variable      check0 equal 1502                       
variable      b equal ${check}+1                          # The grafted bead id will be one higher after being inserted
variable      b equal 1502+1                          
if            "${twgcount} != $(v_i)" then "jump MDPBB.in loop"
# Otherwise insert the chain directly above the chosen wall atom pointing perpendicular to the wall
create_atoms  1 single ${x0} ${y0} ${z0} mol bs 24987 units box remap yes rotate 0 0 0 1
create_atoms  1 single 15.874010519682 ${y0} ${z0} mol bs 24987 units box remap yes rotate 0 0 0 1
create_atoms  1 single 15.874010519682 18.2551120976343 ${z0} mol bs 24987 units box remap yes rotate 0 0 0 1
create_atoms  1 single 15.874010519682 18.2551120976343 17 mol bs 24987 units box remap yes rotate 0 0 0 1
Created 30 atoms
  create_atoms CPU = 0.000266075 secs
variable      check1 equal ${check}               # Count the new total number of atoms
variable      check1 equal 1532               
# Check that the molecule has indeed been inserted (This check is no longer an issue).
if            "${check1} != ${check0}" then "create_bonds  single/bond 2 ${randatomi} $b" "next i"
create_bonds  single/bond 2 ${randatomi} $b
create_bonds  single/bond 2 1318 $b
create_bonds  single/bond 2 1318 1503
  2 = max # of 1-2 neighbors
  5 = max # of special neighbors
  special bonds CPU = 0.000622034 secs
next i
jump MDPBB.in loop    # End of the loop
variable      randni equal round(random(1,${ntwall},$s))  # Pick a random "top" wall atom
variable      randni equal round(random(1,1352,$s))  
variable      randni equal round(random(1,1352,234897))  
variable      randatomi equal ${randni}                   # This is to obtain an integer number for atom-id
variable      randatomi equal 979                   
variable      randzi equal z[${randatomi}]                # Determine the z coordinate of the chosen atom
variable      randzi equal z[979]                
# if the chosen atom is not a surface atom then restart the loop
if            "${randzi} < $(v_wthick - 0.7)" then "jump MDPBB.in loop"
jump MDPBB.in loop
variable      randni equal round(random(1,${ntwall},$s))  # Pick a random "top" wall atom
variable      randni equal round(random(1,1352,$s))  
variable      randni equal round(random(1,1352,234897))  
variable      randatomi equal ${randni}                   # This is to obtain an integer number for atom-id
variable      randatomi equal 1270                   
variable      randzi equal z[${randatomi}]                # Determine the z coordinate of the chosen atom
variable      randzi equal z[1270]                
# if the chosen atom is not a surface atom then restart the loop
if            "${randzi} < $(v_wthick - 0.7)" then "jump MDPBB.in loop"
set           atom ${randatomi} type 4                    # Set this grafted wall atom as a new type
set           atom 1270 type 4                    
  1 settings made for type
group         twg id ${randatomi}                         # Add this atom to a top-wall-grafted group
group         twg id 1270                         
7 atoms in group twg
variable      twgcount equal count(twg)
print         "twg contains ${twgcount}"
twg contains 7
print         "i = $(v_i)"                                # The index i should always be equal to the number of atom in twg
i = 7
variable      x0 equal x[${randatomi}]                    # Determine its x-coord
variable      x0 equal x[1270]                    
variable      y0 equal y[${randatomi}]                    # Determine its y-coord
variable      y0 equal y[1270]                    
variable      check0 equal ${check}                       # Count the number of atoms in the simulation
variable      check0 equal 1532                       
variable      b equal ${check}+1                          # The grafted bead id will be one higher after being inserted
variable      b equal 1532+1                          
if            "${twgcount} != $(v_i)" then "jump MDPBB.in loop"
# Otherwise insert the chain directly above the chosen wall atom pointing perpendicular to the wall
create_atoms  1 single ${x0} ${y0} ${z0} mol bs 24987 units box remap yes rotate 0 0 0 1
create_atoms  1 single 17.4614115716502 ${y0} ${z0} mol bs 24987 units box remap yes rotate 0 0 0 1
create_atoms  1 single 17.4614115716502 15.0803099936979 ${z0} mol bs 24987 units box remap yes rotate 0 0 0 1
create_atoms  1 single 17.4614115716502 15.0803099936979 17 mol bs 24987 units box remap yes rotate 0 0 0 1
Created 30 atoms
  create_atoms CPU = 0.000262976 secs
variable      check1 equal ${check}               # Count the new total number of atoms
variable      check1 equal 1562               
# Check that the molecule has indeed been inserted (This check is no longer an issue).
if            "${check1} != ${check0}" then "create_bonds  single/bond 2 ${randatomi} $b" "next i"
create_bonds  single/bond 2 ${randatomi} $b
create_bonds  single/bond 2 1270 $b
create_bonds  single/bond 2 1270 1533
  2 = max # of 1-2 neighbors
  5 = max # of special neighbors
  special bonds CPU = 0.000633955 secs
next i
jump MDPBB.in loop    # End of the loop
variable      randni equal round(random(1,${ntwall},$s))  # Pick a random "top" wall atom
variable      randni equal round(random(1,1352,$s))  
variable      randni equal round(random(1,1352,234897))  
variable      randatomi equal ${randni}                   # This is to obtain an integer number for atom-id
variable      randatomi equal 320                   
variable      randzi equal z[${randatomi}]                # Determine the z coordinate of the chosen atom
variable      randzi equal z[320]                
# if the chosen atom is not a surface atom then restart the loop
if            "${randzi} < $(v_wthick - 0.7)" then "jump MDPBB.in loop"
jump MDPBB.in loop
variable      randni equal round(random(1,${ntwall},$s))  # Pick a random "top" wall atom
variable      randni equal round(random(1,1352,$s))  
variable      randni equal round(random(1,1352,234897))  
variable      randatomi equal ${randni}                   # This is to obtain an integer number for atom-id
variable      randatomi equal 1261                   
variable      randzi equal z[${randatomi}]                # Determine the z coordinate of the chosen atom
variable      randzi equal z[1261]                
# if the chosen atom is not a surface atom then restart the loop
if            "${randzi} < $(v_wthick - 0.7)" then "jump MDPBB.in loop"
set           atom ${randatomi} type 4                    # Set this grafted wall atom as a new type
set           atom 1261 type 4                    
  1 settings made for type
group         twg id ${randatomi}                         # Add this atom to a top-wall-grafted group
group         twg id 1261                         
8 atoms in group twg
variable      twgcount equal count(twg)
print         "twg contains ${twgcount}"
twg contains 8
print         "i = $(v_i)"                                # The index i should always be equal to the number of atom in twg
i = 8
variable      x0 equal x[${randatomi}]                    # Determine its x-coord
variable      x0 equal x[1261]                    
variable      y0 equal y[${randatomi}]                    # Determine its y-coord
variable      y0 equal y[1261]                    
variable      check0 equal ${check}                       # Count the number of atoms in the simulation
variable      check0 equal 1562                       
variable      b equal ${check}+1                          # The grafted bead id will be one higher after being inserted
variable      b equal 1562+1                          
if            "${twgcount} != $(v_i)" then "jump MDPBB.in loop"
# Otherwise insert the chain directly above the chosen wall atom pointing perpendicular to the wall
create_atoms  1 single ${x0} ${y0} ${z0} mol bs 24987 units box remap yes rotate 0 0 0 1
create_atoms  1 single 15.0803099936979 ${y0} ${z0} mol bs 24987 units box remap yes rotate 0 0 0 1
create_atoms  1 single 15.0803099936979 14.2866094677138 ${z0} mol bs 24987 units box remap yes rotate 0 0 0 1
create_atoms  1 single 15.0803099936979 14.2866094677138 17 mol bs 24987 units box remap yes rotate 0 0 0 1
Created 30 atoms
  create_atoms CPU = 0.000267982 secs
variable      check1 equal ${check}               # Count the new total number of atoms
variable      check1 equal 1592               
# Check that the molecule has indeed been inserted (This check is no longer an issue).
if            "${check1} != ${check0}" then "create_bonds  single/bond 2 ${randatomi} $b" "next i"
create_bonds  single/bond 2 ${randatomi} $b
create_bonds  single/bond 2 1261 $b
create_bonds  single/bond 2 1261 1563
  2 = max # of 1-2 neighbors
  5 = max # of special neighbors
  special bonds CPU = 0.000623226 secs
next i
jump MDPBB.in loop    # End of the loop
variable      randni equal round(random(1,${ntwall},$s))  # Pick a random "top" wall atom
variable      randni equal round(random(1,1352,$s))  
variable      randni equal round(random(1,1352,234897))  
variable      randatomi equal ${randni}                   # This is to obtain an integer number for atom-id
variable      randatomi equal 177                   
variable      randzi equal z[${randatomi}]                # Determine the z coordinate of the chosen atom
variable      randzi equal z[177]                
# if the chosen atom is not a surface atom then restart the loop
if            "${randzi} < $(v_wthick - 0.7)" then "jump MDPBB.in loop"
set           atom ${randatomi} type 4                    # Set this grafted wall atom as a new type
set           atom 177 type 4                    
  1 settings made for type
group         twg id ${randatomi}                         # Add this atom to a top-wall-grafted group
group         twg id 177                         
9 atoms in group twg
variable      twgcount equal count(twg)
print         "twg contains ${twgcount}"
twg contains 9
print         "i = $(v_i)"                                # The index i should always be equal to the number of atom in twg
i = 9
variable      x0 equal x[${randatomi}]                    # Determine its x-coord
variable      x0 equal x[177]                    
variable      y0 equal y[${randatomi}]                    # Determine its y-coord
variable      y0 equal y[177]                    
variable      check0 equal ${check}                       # Count the number of atoms in the simulation
variable      check0 equal 1592                       
variable      b equal ${check}+1                          # The grafted bead id will be one higher after being inserted
variable      b equal 1592+1                          
if            "${twgcount} != $(v_i)" then "jump MDPBB.in loop"
# Otherwise insert the chain directly above the chosen wall atom pointing perpendicular to the wall
create_atoms  1 single ${x0} ${y0} ${z0} mol bs 24987 units box remap yes rotate 0 0 0 1
create_atoms  1 single 1.5874010519682 ${y0} ${z0} mol bs 24987 units box remap yes rotate 0 0 0 1
create_atoms  1 single 1.5874010519682 0.7937005259841 ${z0} mol bs 24987 units box remap yes rotate 0 0 0 1
create_atoms  1 single 1.5874010519682 0.7937005259841 17 mol bs 24987 units box remap yes rotate 0 0 0 1
Created 30 atoms
  create_atoms CPU = 0.000272989 secs
variable      check1 equal ${check}               # Count the new total number of atoms
variable      check1 equal 1622               
# Check that the molecule has indeed been inserted (This check is no longer an issue).
if            "${check1} != ${check0}" then "create_bonds  single/bond 2 ${randatomi} $b" "next i"
create_bonds  single/bond 2 ${randatomi} $b
create_bonds  single/bond 2 177 $b
create_bonds  single/bond 2 177 1593
  2 = max # of 1-2 neighbors
  5 = max # of special neighbors
  special bonds CPU = 0.000633955 secs
next i
jump MDPBB.in loop    # End of the loop
variable      randni equal round(random(1,${ntwall},$s))  # Pick a random "top" wall atom
variable      randni equal round(random(1,1352,$s))  
variable      randni equal round(random(1,1352,234897))  
variable      randatomi equal ${randni}                   # This is to obtain an integer number for atom-id
variable      randatomi equal 1150                   
variable      randzi equal z[${randatomi}]                # Determine the z coordinate of the chosen atom
variable      randzi equal z[1150]                
# if the chosen atom is not a surface atom then restart the loop
if            "${randzi} < $(v_wthick - 0.7)" then "jump MDPBB.in loop"
jump MDPBB.in loop
variable      randni equal round(random(1,${ntwall},$s))  # Pick a random "top" wall atom
variable      randni equal round(random(1,1352,$s))  
variable      randni equal round(random(1,1352,234897))  
variable      randatomi equal ${randni}                   # This is to obtain an integer number for atom-id
variable      randatomi equal 1263                   
variable      randzi equal z[${randatomi}]                # Determine the z coordinate of the chosen atom
variable      randzi equal z[1263]                
# if the chosen atom is not a surface atom then restart the loop
if            "${randzi} < $(v_wthick - 0.7)" then "jump MDPBB.in loop"
jump MDPBB.in loop
variable      randni equal round(random(1,${ntwall},$s))  # Pick a random "top" wall atom
variable      randni equal round(random(1,1352,$s))  
variable      randni equal round(random(1,1352,234897))  
variable      randatomi equal ${randni}                   # This is to obtain an integer number for atom-id
variable      randatomi equal 463                   
variable      randzi equal z[${randatomi}]                # Determine the z coordinate of the chosen atom
variable      randzi equal z[463]                
# if the chosen atom is not a surface atom then restart the loop
if            "${randzi} < $(v_wthick - 0.7)" then "jump MDPBB.in loop"
jump MDPBB.in loop
variable      randni equal round(random(1,${ntwall},$s))  # Pick a random "top" wall atom
variable      randni equal round(random(1,1352,$s))  
variable      randni equal round(random(1,1352,234897))  
variable      randatomi equal ${randni}                   # This is to obtain an integer number for atom-id
variable      randatomi equal 352                   
variable      randzi equal z[${randatomi}]                # Determine the z coordinate of the chosen atom
variable      randzi equal z[352]                
# if the chosen atom is not a surface atom then restart the loop
if            "${randzi} < $(v_wthick - 0.7)" then "jump MDPBB.in loop"
jump MDPBB.in loop
variable      randni equal round(random(1,${ntwall},$s))  # Pick a random "top" wall atom
variable      randni equal round(random(1,1352,$s))  
variable      randni equal round(random(1,1352,234897))  
variable      randatomi equal ${randni}                   # This is to obtain an integer number for atom-id
variable      randatomi equal 898                   
variable      randzi equal z[${randatomi}]                # Determine the z coordinate of the chosen atom
variable      randzi equal z[898]                
# if the chosen atom is not a surface atom then restart the loop
if            "${randzi} < $(v_wthick - 0.7)" then "jump MDPBB.in loop"
jump MDPBB.in loop
variable      randni equal round(random(1,${ntwall},$s))  # Pick a random "top" wall atom
variable      randni equal round(random(1,1352,$s))  
variable      randni equal round(random(1,1352,234897))  
variable      randatomi equal ${randni}                   # This is to obtain an integer number for atom-id
variable      randatomi equal 631                   
variable      randzi equal z[${randatomi}]                # Determine the z coordinate of the chosen atom
variable      randzi equal z[631]                
# if the chosen atom is not a surface atom then restart the loop
if            "${randzi} < $(v_wthick - 0.7)" then "jump MDPBB.in loop"
set           atom ${randatomi} type 4                    # Set this grafted wall atom as a new type
set           atom 631 type 4                    
  1 settings made for type
group         twg id ${randatomi}                         # Add this atom to a top-wall-grafted group
group         twg id 631                         
10 atoms in group twg
variable      twgcount equal count(twg)
print         "twg contains ${twgcount}"
twg contains 10
print         "i = $(v_i)"                                # The index i should always be equal to the number of atom in twg
i = 10
variable      x0 equal x[${randatomi}]                    # Determine its x-coord
variable      x0 equal x[631]                    
variable      y0 equal y[${randatomi}]                    # Determine its y-coord
variable      y0 equal y[631]                    
variable      check0 equal ${check}                       # Count the number of atoms in the simulation
variable      check0 equal 1622                       
variable      b equal ${check}+1                          # The grafted bead id will be one higher after being inserted
variable      b equal 1622+1                          
if            "${twgcount} != $(v_i)" then "jump MDPBB.in loop"
# Otherwise insert the chain directly above the chosen wall atom pointing perpendicular to the wall
create_atoms  1 single ${x0} ${y0} ${z0} mol bs 24987 units box remap yes rotate 0 0 0 1
create_atoms  1 single 2.3811015779523 ${y0} ${z0} mol bs 24987 units box remap yes rotate 0 0 0 1
create_atoms  1 single 2.3811015779523 17.4614115716502 ${z0} mol bs 24987 units box remap yes rotate 0 0 0 1
create_atoms  1 single 2.3811015779523 17.4614115716502 17 mol bs 24987 units box remap yes rotate 0 0 0 1
Created 30 atoms
  create_atoms CPU = 0.000266075 secs
variable      check1 equal ${check}               # Count the new total number of atoms
variable      check1 equal 1652               
# Check that the molecule has indeed been inserted (This check is no longer an issue).
if            "${check1} != ${check0}" then "create_bonds  single/bond 2 ${randatomi} $b" "next i"
create_bonds  single/bond 2 ${randatomi} $b
create_bonds  single/bond 2 631 $b
create_bonds  single/bond 2 631 1623
  2 = max # of 1-2 neighbors
  5 = max # of special neighbors
  special bonds CPU = 0.000627041 secs
next i
jump MDPBB.in loop    # End of the loop
variable      randni equal round(random(1,${ntwall},$s))  # Pick a random "top" wall atom
variable      randni equal round(random(1,1352,$s))  
variable      randni equal round(random(1,1352,234897))  
variable      randatomi equal ${randni}                   # This is to obtain an integer number for atom-id
variable      randatomi equal 196                   
variable      randzi equal z[${randatomi}]                # Determine the z coordinate of the chosen atom
variable      randzi equal z[196]                
# if the chosen atom is not a surface atom then restart the loop
if            "${randzi} < $(v_wthick - 0.7)" then "jump MDPBB.in loop"
jump MDPBB.in loop
variable      randni equal round(random(1,${ntwall},$s))  # Pick a random "top" wall atom
variable      randni equal round(random(1,1352,$s))  
variable      randni equal round(random(1,1352,234897))  
variable      randatomi equal ${randni}                   # This is to obtain an integer number for atom-id
variable      randatomi equal 1245                   
variable      randzi equal z[${randatomi}]                # Determine the z coordinate of the chosen atom
variable      randzi equal z[1245]                
# if the chosen atom is not a surface atom then restart the loop
if            "${randzi} < $(v_wthick - 0.7)" then "jump MDPBB.in loop"
jump MDPBB.in loop
variable      randni equal round(random(1,${ntwall},$s))  # Pick a random "top" wall atom
variable      randni equal round(random(1,1352,$s))  
variable      randni equal round(random(1,1352,234897))  
variable      randatomi equal ${randni}                   # This is to obtain an integer number for atom-id
variable      randatomi equal 1293                   
variable      randzi equal z[${randatomi}]                # Determine the z coordinate of the chosen atom
variable      randzi equal z[1293]                
# if the chosen atom is not a surface atom then restart the loop
if            "${randzi} < $(v_wthick - 0.7)" then "jump MDPBB.in loop"
jump MDPBB.in loop
variable      randni equal round(random(1,${ntwall},$s))  # Pick a random "top" wall atom
variable      randni equal round(random(1,1352,$s))  
variable      randni equal round(random(1,1352,234897))  
variable      randatomi equal ${randni}                   # This is to obtain an integer number for atom-id
variable      randatomi equal 1223                   
variable      randzi equal z[${randatomi}]                # Determine the z coordinate of the chosen atom
variable      randzi equal z[1223]                
# if the chosen atom is not a surface atom then restart the loop
if            "${randzi} < $(v_wthick - 0.7)" then "jump MDPBB.in loop"
jump MDPBB.in loop
variable      randni equal round(random(1,${ntwall},$s))  # Pick a random "top" wall atom
variable      randni equal round(random(1,1352,$s))  
variable      randni equal round(random(1,1352,234897))  
variable      randatomi equal ${randni}                   # This is to obtain an integer number for atom-id
variable      randatomi equal 1078                   
variable      randzi equal z[${randatomi}]                # Determine the z coordinate of the chosen atom
variable      randzi equal z[1078]                
# if the chosen atom is not a surface atom then restart the loop
if            "${randzi} < $(v_wthick - 0.7)" then "jump MDPBB.in loop"
jump MDPBB.in loop
variable      randni equal round(random(1,${ntwall},$s))  # Pick a random "top" wall atom
variable      randni equal round(random(1,1352,$s))  
variable      randni equal round(random(1,1352,234897))  
variable      randatomi equal ${randni}                   # This is to obtain an integer number for atom-id
variable      randatomi equal 594                   
variable      randzi equal z[${randatomi}]                # Determine the z coordinate of the chosen atom
variable      randzi equal z[594]                
# if the chosen atom is not a surface atom then restart the loop
if            "${randzi} < $(v_wthick - 0.7)" then "jump MDPBB.in loop"
jump MDPBB.in loop
variable      randni equal round(random(1,${ntwall},$s))  # Pick a random "top" wall atom
variable      randni equal round(random(1,1352,$s))  
variable      randni equal round(random(1,1352,234897))  
variable      randatomi equal ${randni}                   # This is to obtain an integer number for atom-id
variable      randatomi equal 502                   
variable      randzi equal z[${randatomi}]                # Determine the z coordinate of the chosen atom
variable      randzi equal z[502]                
# if the chosen atom is not a surface atom then restart the loop
if            "${randzi} < $(v_wthick - 0.7)" then "jump MDPBB.in loop"
jump MDPBB.in loop
variable      randni equal round(random(1,${ntwall},$s))  # Pick a random "top" wall atom
variable      randni equal round(random(1,1352,$s))  
variable      randni equal round(random(1,1352,234897))  
variable      randatomi equal ${randni}                   # This is to obtain an integer number for atom-id
variable      randatomi equal 948                   
variable      randzi equal z[${randatomi}]                # Determine the z coordinate of the chosen atom
variable      randzi equal z[948]                
# if the chosen atom is not a surface atom then restart the loop
if            "${randzi} < $(v_wthick - 0.7)" then "jump MDPBB.in loop"
set           atom ${randatomi} type 4                    # Set this grafted wall atom as a new type
set           atom 948 type 4                    
  1 settings made for type
group         twg id ${randatomi}                         # Add this atom to a top-wall-grafted group
group         twg id 948                         
11 atoms in group twg
variable      twgcount equal count(twg)
print         "twg contains ${twgcount}"
twg contains 11
print         "i = $(v_i)"                                # The index i should always be equal to the number of atom in twg
i = 11
variable      x0 equal x[${randatomi}]                    # Determine its x-coord
variable      x0 equal x[948]                    
variable      y0 equal y[${randatomi}]                    # Determine its y-coord
variable      y0 equal y[948]                    
variable      check0 equal ${check}                       # Count the number of atoms in the simulation
variable      check0 equal 1652                       
variable      b equal ${check}+1                          # The grafted bead id will be one higher after being inserted
variable      b equal 1652+1                          
if            "${twgcount} != $(v_i)" then "jump MDPBB.in loop"
# Otherwise insert the chain directly above the chosen wall atom pointing perpendicular to the wall
create_atoms  1 single ${x0} ${y0} ${z0} mol bs 24987 units box remap yes rotate 0 0 0 1
create_atoms  1 single 19.8425131496025 ${y0} ${z0} mol bs 24987 units box remap yes rotate 0 0 0 1
create_atoms  1 single 19.8425131496025 4.7622031559046 ${z0} mol bs 24987 units box remap yes rotate 0 0 0 1
create_atoms  1 single 19.8425131496025 4.7622031559046 17 mol bs 24987 units box remap yes rotate 0 0 0 1
Created 30 atoms
  create_atoms CPU = 0.000261068 secs
variable      check1 equal ${check}               # Count the new total number of atoms
variable      check1 equal 1682               
# Check that the molecule has indeed been inserted (This check is no longer an issue).
if            "${check1} != ${check0}" then "create_bonds  single/bond 2 ${randatomi} $b" "next i"
create_bonds  single/bond 2 ${randatomi} $b
create_bonds  single/bond 2 948 $b
create_bonds  single/bond 2 948 1653
  2 = max # of 1-2 neighbors
  5 = max # of special neighbors
  special bonds CPU = 0.000623941 secs
next i
jump MDPBB.in loop    # End of the loop
variable      randni equal round(random(1,${ntwall},$s))  # Pick a random "top" wall atom
variable      randni equal round(random(1,1352,$s))  
variable      randni equal round(random(1,1352,234897))  
variable      randatomi equal ${randni}                   # This is to obtain an integer number for atom-id
variable      randatomi equal 127                   
variable      randzi equal z[${randatomi}]                # Determine the z coordinate of the chosen atom
variable      randzi equal z[127]                
# if the chosen atom is not a surface atom then restart the loop
if            "${randzi} < $(v_wthick - 0.7)" then "jump MDPBB.in loop"
jump MDPBB.in loop
variable      randni equal round(random(1,${ntwall},$s))  # Pick a random "top" wall atom
variable      randni equal round(random(1,1352,$s))  
variable      randni equal round(random(1,1352,234897))  
variable      randatomi equal ${randni}                   # This is to obtain an integer number for atom-id
variable      randatomi equal 512                   
variable      randzi equal z[${randatomi}]                # Determine the z coordinate of the chosen atom
variable      randzi equal z[512]                
# if the chosen atom is not a surface atom then restart the loop
if            "${randzi} < $(v_wthick - 0.7)" then "jump MDPBB.in loop"
jump MDPBB.in loop
variable      randni equal round(random(1,${ntwall},$s))  # Pick a random "top" wall atom
variable      randni equal round(random(1,1352,$s))  
variable      randni equal round(random(1,1352,234897))  
variable      randatomi equal ${randni}                   # This is to obtain an integer number for atom-id
variable      randatomi equal 590                   
variable      randzi equal z[${randatomi}]                # Determine the z coordinate of the chosen atom
variable      randzi equal z[590]                
# if the chosen atom is not a surface atom then restart the loop
if            "${randzi} < $(v_wthick - 0.7)" then "jump MDPBB.in loop"
jump MDPBB.in loop
variable      randni equal round(random(1,${ntwall},$s))  # Pick a random "top" wall atom
variable      randni equal round(random(1,1352,$s))  
variable      randni equal round(random(1,1352,234897))  
variable      randatomi equal ${randni}                   # This is to obtain an integer number for atom-id
variable      randatomi equal 445                   
variable      randzi equal z[${randatomi}]                # Determine the z coordinate of the chosen atom
variable      randzi equal z[445]                
# if the chosen atom is not a surface atom then restart the loop
if            "${randzi} < $(v_wthick - 0.7)" then "jump MDPBB.in loop"
jump MDPBB.in loop
variable      randni equal round(random(1,${ntwall},$s))  # Pick a random "top" wall atom
variable      randni equal round(random(1,1352,$s))  
variable      randni equal round(random(1,1352,234897))  
variable      randatomi equal ${randni}                   # This is to obtain an integer number for atom-id
variable      randatomi equal 825                   
variable      randzi equal z[${randatomi}]                # Determine the z coordinate of the chosen atom
variable      randzi equal z[825]                
# if the chosen atom is not a surface atom then restart the loop
if            "${randzi} < $(v_wthick - 0.7)" then "jump MDPBB.in loop"
jump MDPBB.in loop
variable      randni equal round(random(1,${ntwall},$s))  # Pick a random "top" wall atom
variable      randni equal round(random(1,1352,$s))  
variable      randni equal round(random(1,1352,234897))  
variable      randatomi equal ${randni}                   # This is to obtain an integer number for atom-id
variable      randatomi equal 387                   
variable      randzi equal z[${randatomi}]                # Determine the z coordinate of the chosen atom
variable      randzi equal z[387]                
# if the chosen atom is not a surface atom then restart the loop
if            "${randzi} < $(v_wthick - 0.7)" then "jump MDPBB.in loop"
jump MDPBB.in loop
variable      randni equal round(random(1,${ntwall},$s))  # Pick a random "top" wall atom
variable      randni equal round(random(1,1352,$s))  
variable      randni equal round(random(1,1352,234897))  
variable      randatomi equal ${randni}                   # This is to obtain an integer number for atom-id
variable      randatomi equal 323                   
variable      randzi equal z[${randatomi}]                # Determine the z coordinate of the chosen atom
variable      randzi equal z[323]                
# if the chosen atom is not a surface atom then restart the loop
if            "${randzi} < $(v_wthick - 0.7)" then "jump MDPBB.in loop"
set           atom ${randatomi} type 4                    # Set this grafted wall atom as a new type
set           atom 323 type 4                    
  1 settings made for type
group         twg id ${randatomi}                         # Add this atom to a top-wall-grafted group
group         twg id 323                         
12 atoms in group twg
variable      twgcount equal count(twg)
print         "twg contains ${twgcount}"
twg contains 12
print         "i = $(v_i)"                                # The index i should always be equal to the number of atom in twg
i = 12
variable      x0 equal x[${randatomi}]                    # Determine its x-coord
variable      x0 equal x[323]                    
variable      y0 equal y[${randatomi}]                    # Determine its y-coord
variable      y0 equal y[323]                    
variable      check0 equal ${check}                       # Count the number of atoms in the simulation
variable      check0 equal 1682                       
variable      b equal ${check}+1                          # The grafted bead id will be one higher after being inserted
variable      b equal 1682+1                          
if            "${twgcount} != $(v_i)" then "jump MDPBB.in loop"
# Otherwise insert the chain directly above the chosen wall atom pointing perpendicular to the wall
create_atoms  1 single ${x0} ${y0} ${z0} mol bs 24987 units box remap yes rotate 0 0 0 1
create_atoms  1 single 7.937005259841 ${y0} ${z0} mol bs 24987 units box remap yes rotate 0 0 0 1
create_atoms  1 single 7.937005259841 8.7307057858251 ${z0} mol bs 24987 units box remap yes rotate 0 0 0 1
create_atoms  1 single 7.937005259841 8.7307057858251 17 mol bs 24987 units box remap yes rotate 0 0 0 1
Created 30 atoms
  create_atoms CPU = 0.000280857 secs
variable      check1 equal ${check}               # Count the new total number of atoms
variable      check1 equal 1712               
# Check that the molecule has indeed been inserted (This check is no longer an issue).
if            "${check1} != ${check0}" then "create_bonds  single/bond 2 ${randatomi} $b" "next i"
create_bonds  single/bond 2 ${randatomi} $b
create_bonds  single/bond 2 323 $b
create_bonds  single/bond 2 323 1683
  2 = max # of 1-2 neighbors
  5 = max # of special neighbors
  special bonds CPU = 0.000648975 secs
next i
jump MDPBB.in loop    # End of the loop
variable      randni equal round(random(1,${ntwall},$s))  # Pick a random "top" wall atom
variable      randni equal round(random(1,1352,$s))  
variable      randni equal round(random(1,1352,234897))  
variable      randatomi equal ${randni}                   # This is to obtain an integer number for atom-id
variable      randatomi equal 117                   
variable      randzi equal z[${randatomi}]                # Determine the z coordinate of the chosen atom
variable      randzi equal z[117]                
# if the chosen atom is not a surface atom then restart the loop
if            "${randzi} < $(v_wthick - 0.7)" then "jump MDPBB.in loop"
jump MDPBB.in loop
variable      randni equal round(random(1,${ntwall},$s))  # Pick a random "top" wall atom
variable      randni equal round(random(1,1352,$s))  
variable      randni equal round(random(1,1352,234897))  
variable      randatomi equal ${randni}                   # This is to obtain an integer number for atom-id
variable      randatomi equal 921                   
variable      randzi equal z[${randatomi}]                # Determine the z coordinate of the chosen atom
variable      randzi equal z[921]                
# if the chosen atom is not a surface atom then restart the loop
if            "${randzi} < $(v_wthick - 0.7)" then "jump MDPBB.in loop"
jump MDPBB.in loop
variable      randni equal round(random(1,${ntwall},$s))  # Pick a random "top" wall atom
variable      randni equal round(random(1,1352,$s))  
variable      randni equal round(random(1,1352,234897))  
variable      randatomi equal ${randni}                   # This is to obtain an integer number for atom-id
variable      randatomi equal 992                   
variable      randzi equal z[${randatomi}]                # Determine the z coordinate of the chosen atom
variable      randzi equal z[992]                
# if the chosen atom is not a surface atom then restart the loop
if            "${randzi} < $(v_wthick - 0.7)" then "jump MDPBB.in loop"
set           atom ${randatomi} type 4                    # Set this grafted wall atom as a new type
set           atom 992 type 4                    
  1 settings made for type
group         twg id ${randatomi}                         # Add this atom to a top-wall-grafted group
group         twg id 992                         
13 atoms in group twg
variable      twgcount equal count(twg)
print         "twg contains ${twgcount}"
twg contains 13
print         "i = $(v_i)"                                # The index i should always be equal to the number of atom in twg
i = 13
variable      x0 equal x[${randatomi}]                    # Determine its x-coord
variable      x0 equal x[992]                    
variable      y0 equal y[${randatomi}]                    # Determine its y-coord
variable      y0 equal y[992]                    
variable      check0 equal ${check}                       # Count the number of atoms in the simulation
variable      check0 equal 1712                       
variable      b equal ${check}+1                          # The grafted bead id will be one higher after being inserted
variable      b equal 1712+1                          
if            "${twgcount} != $(v_i)" then "jump MDPBB.in loop"
# Otherwise insert the chain directly above the chosen wall atom pointing perpendicular to the wall
create_atoms  1 single ${x0} ${y0} ${z0} mol bs 24987 units box remap yes rotate 0 0 0 1
create_atoms  1 single 16.6677110456661 ${y0} ${z0} mol bs 24987 units box remap yes rotate 0 0 0 1
create_atoms  1 single 16.6677110456661 7.937005259841 ${z0} mol bs 24987 units box remap yes rotate 0 0 0 1
create_atoms  1 single 16.6677110456661 7.937005259841 17 mol bs 24987 units box remap yes rotate 0 0 0 1
Created 30 atoms
  create_atoms CPU = 0.000267029 secs
variable      check1 equal ${check}               # Count the new total number of atoms
variable      check1 equal 1742               
# Check that the molecule has indeed been inserted (This check is no longer an issue).
if            "${check1} != ${check0}" then "create_bonds  single/bond 2 ${randatomi} $b" "next i"
create_bonds  single/bond 2 ${randatomi} $b
create_bonds  single/bond 2 992 $b
create_bonds  single/bond 2 992 1713
  2 = max # of 1-2 neighbors
  5 = max # of special neighbors
  special bonds CPU = 0.000632048 secs
next i
jump MDPBB.in loop    # End of the loop
variable      randni equal round(random(1,${ntwall},$s))  # Pick a random "top" wall atom
variable      randni equal round(random(1,1352,$s))  
variable      randni equal round(random(1,1352,234897))  
variable      randatomi equal ${randni}                   # This is to obtain an integer number for atom-id
variable      randatomi equal 456                   
variable      randzi equal z[${randatomi}]                # Determine the z coordinate of the chosen atom
variable      randzi equal z[456]                
# if the chosen atom is not a surface atom then restart the loop
if            "${randzi} < $(v_wthick - 0.7)" then "jump MDPBB.in loop"
jump MDPBB.in loop
variable      randni equal round(random(1,${ntwall},$s))  # Pick a random "top" wall atom
variable      randni equal round(random(1,1352,$s))  
variable      randni equal round(random(1,1352,234897))  
[...]
 1957000    12.112798    2.0036652    10.109133  -0.13285005    1.3360735    1.9026269   0.95949427    -1.183432            1     5.373064    7.7505056    7.8022059   0.56648057 0.0010975644  -0.17668214   -0.1042873    5.1608813    5.0930329   0.65758871        0.075    1.8773046            1   0.14613082    6.8431832    2.7877808    30.557551  0.029529786  -0.21373892  0.029749796   0.18972404   0.49223695    2.1659466 
 1958000    12.107232    1.9971927    10.110039  -0.14235948    1.3317575    1.8915364   0.95968545    -1.183432            1    5.2752631    7.6791656    7.6710895   0.47553421  0.043514281  0.017470964 -0.021185195    5.0630382    4.9968643   0.64539179        0.075    1.8830402            1    0.1434204    6.9725089    2.8189641    30.557551 -0.024876929  -0.16421046 0.0074336253   0.18941949   -1.1622583    3.2265229 
 1959000    12.073263    1.9495685    10.123694   -0.1216342     1.300001    1.8633017    0.9255733    -1.183432            1    4.9401838     7.491809    7.4258205 -0.097078274  0.032821742  -0.20670146  0.079698428    4.7355024    4.6659406   0.65286412        0.075    1.8787316            1   0.14508091    6.8927054    2.7966476    30.557551  0.033738567  -0.19181397  0.025851345   0.23850542    2.3590586   -4.8660003 
 1960000    12.124897    1.9866347    10.138263  -0.13252118    1.3247173    1.8945945    0.9459217    -1.183432            1    5.2165806    7.6948079    7.6386125   0.31632146 -0.0070064793 -0.020227477 0.0063684083    5.0073994    4.9377317   0.67498864        0.075    1.8782305            1   0.14999748    6.6667789    2.8190325    30.557551 -0.0081432115  -0.22966777 -0.0050833018   0.15340862   -1.6469478    2.5808375 
 1961000    12.114878    2.0065275    10.108351  -0.13984271    1.3379821    1.9248408   0.94788923    -1.183432            1    5.2872443    7.7414644    7.6840079   0.43626042 -0.0037210751   0.17357894 -0.0021083373    5.0776279    5.0039437   0.68376407        0.075    1.8699842            1   0.15194757    6.5812174    2.7990009    30.557551 -0.0038347519  -0.25617792 0.0058881076   0.21646855   0.17088277    1.7787299 
 1962000     12.10811    1.9915792    10.116531  -0.13479908    1.3280143    1.8726564    0.9660154    -1.183432            1    5.3211804    7.6606942    7.7238582   0.57898876  0.041902894  -0.31142819 -0.091128049    5.1075556    5.0455604   0.66338903        0.075    1.9099849            1   0.14741978      6.78335     2.790446    30.557551  0.027368474  -0.18393852 -0.0051444878   0.18625116    1.7196764   -1.7969768 
 1963000    12.080553    1.9428425     10.13771  -0.12616673     1.295516    1.8517925   0.92576165    -1.183432            1    5.1881133    7.6464927    7.5933281   0.32451922  0.021792819  -0.12241423     0.056832    4.9833903    4.9155641   0.65128325        0.075    1.8778525            1   0.14472961    6.9094361    2.7961474    30.557551  0.042112984  -0.25721692 -0.0066571631    0.2244198   -2.3873989   -1.6953561 
 1964000    12.174086    2.0717637    10.102322  -0.13068586    1.3814826    1.9730817   0.98825081    -1.183432            1    5.0883212    7.6334268    7.5127472   0.11878952 -0.0052081847 -0.0078362628  0.013786181    4.8697793    4.7979205   0.66137299        0.075    1.8751522            1   0.14697178    6.8040275    2.7991318    30.557551 0.0029346397   -0.1917063  0.012739749   0.22047079   -1.8714555  -0.69696359 
 1965000     12.10475    2.0127757    10.091975  -0.15772707    1.3421484    1.9413282   0.94385678    -1.183432            1    5.3810548    7.7859766     7.727277   0.62991081  0.028227194  -0.16838171 -0.042059939    5.1723302    5.0953276   0.67574647        0.075    1.8576513            1   0.15016588    6.6593023    2.8066666    30.557551 0.0035085161  -0.25337551  0.002245919   0.20354539    1.5651576   -2.1119337 
 1966000    12.179157    2.0323981    10.146759   -0.1316054    1.3552329    1.9359094   0.96926116    -1.183432            1    5.4680192    7.8125163    7.8373832    0.7541581 -0.0036417701  0.022902123 -0.042053388    5.2536767    5.1830895   0.67535188        0.075    1.8571416            1    0.1500782    6.6631931    2.8143507    30.557551 -0.0095168732  -0.19329007 -0.0020301433   0.18291417   0.82462636    2.2555764 
 1967000    12.119352    2.0038686    10.115484  -0.13147139     1.336209     1.914428   0.95186583    -1.183432            1    5.2690759    7.6681369    7.6770303   0.46206044  0.025339947 -0.078173097 -0.017047989    5.0585802    4.9873079   0.65903082        0.075     1.896657            1   0.14645129    6.8282087    2.7517998    30.557551  0.008275908  -0.20953412 -0.015002484   0.24781784    1.5406758   0.86770404 
 1968000     12.14851    1.9987129    10.149797  -0.14056983    1.3327712    1.9130909   0.94702854    -1.183432            1    5.0776342    7.4976811    7.5053594   0.22986207  0.029951059  -0.10749862 -0.051071131    4.8682082     4.796063   0.65020849        0.075    1.9235893            1   0.14449078     6.920857    2.8086314    30.557551  -0.01070248  -0.22181158 0.0052945696   0.21590224    0.8400942   -2.7863129 
 1969000     12.14018    1.9975366    10.142644  -0.14107889    1.3319868    1.9093037   0.94824243    -1.183432            1    5.5017768    7.7977559    7.8613743   0.84620029  0.011207092  -0.15980192  0.059515397    5.2920824     5.220763   0.65397983        0.075    1.8901158            1   0.14532885    6.8809462    2.8109779    30.557551  0.020341112  -0.22044087 -0.029728444   0.19067895    1.3815368    3.2834427 
 1970000    12.135206    1.9807022    10.154504  -0.11908458    1.3207614    1.8965192   0.93805049    -1.183432            1     5.322079    7.7749898    7.6693892   0.52185795 0.0081171814  0.082691786 -0.023987914    5.1146384    5.0429468   0.67158737        0.075      1.86144            1   0.14924164     6.700543    2.8091426    30.557551 -0.011593886  -0.26182922  0.011730915   0.20972879  -0.70963122    1.9064115 
 1971000     12.14166     2.001406    10.140254  -0.13314599     1.334567    1.8966065   0.96099151    -1.183432            1    5.1850989    7.5983166    7.6376204   0.31935975  0.041141479 2.1269783e-05  0.031466349    4.9725852    4.9059539   0.66851762        0.075    1.9266545            1   0.14855947     6.731311     2.783638    30.557551 -0.00080132648  -0.18139217 0.0030720759   0.16519765  -0.45410779   -2.2129547 
 1972000     12.13028    1.9751852    10.155094  -0.13603499    1.3170826     1.878531   0.94389403    -1.183432            1    5.3021403    7.7035107      7.69324   0.50967028 -0.032297567   0.19282533 -0.038750335    5.0934075    5.0256557   0.65554466        0.075    1.9433415            1   0.14567659    6.8645209    2.8159251    30.557551 0.0085018163  -0.17362603 -0.0097697759   0.21248233   -1.7883275    1.5354025 
 1973000    12.120769    2.0070353    10.113734  -0.11868627    1.3383207    1.9462941   0.93417501    -1.183432            1    5.3436208     7.740739    7.7078103   0.58231327  0.015860547   -0.1255055  0.051564146    5.1370373    5.0571627   0.65947703        0.075    1.9602978            1   0.14655045    6.8235886    2.8004119    30.557551 -0.0012367339  -0.22865966 0.0098665564   0.22418005     1.971756    1.5341604 
 1974000    12.119774    1.9822995    10.137475  -0.12989681    1.3218265    1.8929184   0.94222138    -1.183432            1    5.3335923    7.7143222    7.7593059   0.52714881  0.027992206 -0.008125297 -0.023615232    5.1252294    5.0549901    0.6685118        0.075    1.9029369            1   0.14855818    6.7313696    2.7914156    30.557551  0.010013807  -0.21943552 -0.020339769    0.1731884   0.81051498    3.1357854 
 1975000     12.11243    1.9784542    10.133976  -0.15001668    1.3192624    1.8613608   0.95895315    -1.183432            1    5.2062749    7.5617046    7.6757027   0.38141733 0.0028982918  -0.35943536  0.069175161    4.9942119    4.9323174   0.67039122        0.075    1.9240349            1   0.14897583    6.7124984    2.7990434    30.557551 0.0078851951  -0.17568317 -0.0085966649   0.17366537    2.1232356    10.682493 
 1976000    12.123934    1.9982862    10.125648  -0.12904461    1.3324866    1.9223645    0.9403824    -1.183432            1    5.2860233    7.6680191    7.7805607   0.40949008 -0.027026711  -0.17208599  -0.02924792     5.078067    5.0030872   0.66221527        0.075    1.9043517            1   0.14715895    6.7953734    2.8045077    30.557551 -0.0040673128   -0.1622015  0.014261355    0.1614877    1.4926622    2.1741169 
 1977000    12.090235    1.9814125    10.108822  -0.13822654     1.321235    1.9119801    0.9285494    -1.183432            1    5.0028699     7.509217    7.4729625  0.026430287 -0.0083687855 0.0040306999 -0.072017217    4.7975304    4.7214622    0.6606607        0.075    1.8413411            1   0.14681349    6.8113632    2.8068739    30.557551 0.0057166158  -0.16819265 0.0094891952   0.19720899   -2.1419294   -2.6979572 
 1978000    12.157163    1.9815453    10.175618  -0.12052859    1.3213235     1.860959   0.96265435    -1.183432            1    4.9724582    7.4669099    7.4485597 0.0019051201 -0.024628784 -0.097123226 0.0013562594    4.7595767    4.6985599   0.65972325        0.075    1.8875282            1   0.14660517     6.821042    2.8369317    30.557551  0.013748668  -0.14236792 -0.0098912217   0.13339792    1.9583252   -4.9231203 
 1979000    12.107643    1.9910926     10.11655   -0.1277631    1.3276898    1.8987107    0.9481342    -1.183432            1    5.3118585    7.6948045      7.66893   0.57184115 -0.0093456706 -0.086202774   0.11160611     5.102188    5.0324038   0.65716843        0.075    1.9028893            1   0.14603743    6.8475596    2.8303549    30.557551 0.0085362216  -0.25021076 -0.0019452097   0.18813182   -1.4425698    2.5218767 
 1980000    12.117914    1.9788845     10.13903  -0.14924227    1.3195493     1.876131   0.94960074    -1.183432            1    5.2423662    7.6520726    7.6314092   0.44361685  0.030004736 -0.022411264    -0.113916    5.0323714    4.9662348   0.65940801        0.075    1.8737576            1   0.14653511    6.8243029    2.8049163    30.557551  0.015557972  -0.16343653 -0.037058485   0.25634743    1.6952672     -1.10683 
 1981000    12.114606    1.9888118    10.125794  -0.14478632     1.326169    1.9136544   0.93565467    -1.183432            1     5.240403    7.6130659    7.6815253   0.42661762  0.027454764   0.01108509 -0.013331844    5.0334922    4.9587488    0.6658097        0.075    1.8865858            1   0.14795771    6.7586879    2.8140659    30.557551 0.00060104941  -0.18556114 -0.012725504   0.17177458   -4.7123627    1.6339505 
 1982000    12.124677    1.9773546    10.147323  -0.14507044    1.3185292    1.8876913   0.94020723    -1.183432            1    5.2294439    7.6121549    7.6520721   0.42410477 -0.00067014379  -0.11952153  -0.13808845    5.0215264    4.9516111   0.66213595        0.075    1.8314192            1   0.14714132    6.7961874    2.7843109    30.557551  0.030298694  -0.17743745  0.017539682   0.22353267  -0.41382371   0.21434839 
 1983000     12.10782    1.9637113    10.144109  -0.13912073    1.3094316    1.8841329   0.92741966    -1.183432            1    5.1691029    7.5438711    7.6627098   0.30072785 0.0021833312  -0.29062416 -0.0052962089    4.9640132    4.8917938   0.67176622        0.075    1.9576906            1   0.14928138     6.698759    2.8097316    30.557551  0.026010946   -0.2247984 -0.0045462184   0.16302697    1.8577683    4.0439906 
 1984000    12.127853    1.9340216    10.193832  -0.11117904    1.2896341    1.8541362   0.91440292    -1.183432            1    5.2132783    7.6565262    7.5816228   0.40168584   0.06120507 -0.056657297  0.030133416    5.0110671    4.9403841   0.66009375        0.075    1.9647919            1    0.1466875    6.8172134    2.7939713    30.557551 -0.014615539  -0.28951014 -0.013943869   0.21061768   -3.5730231   0.63670126 
 1985000    12.132921    2.0023034    10.130618  -0.12335643    1.3351654    1.9302302   0.93960989    -1.183432            1    5.2038404    7.5956903    7.6402325   0.37559853 -0.011075219  0.035047899  0.044119192     4.996055    4.9197466   0.65752286        0.075    1.9468215            1   0.14611619    6.8438686    2.7931098    30.557551  0.021094598  -0.14989211 -0.022676355   0.21277168  -0.39525327    1.0729445 
 1986000    12.134469    1.9491871    10.185282  -0.13781722    1.2997466    1.8405658   0.94028162    -1.183432            1    5.1821193    7.5845775    7.6119055   0.34987501  0.002318185  -0.19484394   0.03378096    4.9741854    4.9112225   0.66456051        0.075    1.9006143            1   0.14768011    6.7713924    2.8252794    30.557551  0.024412622  -0.20332552 -0.057921314   0.22142366  -0.81981075  -0.43689383 
 1987000    12.129429    1.9877618    10.141667  -0.12721048    1.3254688    1.8998831   0.94365386    -1.183432            1    5.2137788    7.6489831    7.6129142   0.37943903  0.017544347  -0.10771618 -0.064051015    5.0050991    4.9341515   0.66271043        0.075    1.9475169            1   0.14726899     6.790296    2.8164136    30.557551  0.032240518  -0.27872506 -0.027902016   0.12332975   -1.3119335      2.03348 
 1988000    12.145441    1.9919064    10.153535   -0.1435767    1.3282325    1.9372749   0.92337159    -1.183432            1    4.9401571    7.4430546    7.4061774  -0.02876087  0.038180056  -0.15075546  0.024123774    4.7359626    4.6550264   0.65856566        0.075     1.965532            1   0.14634792    6.8330317    2.8112712    30.557551  0.012858994  -0.20314124  -0.03375472   0.24291063  -0.43362531   -1.0748651 
 1989000    12.154757    2.0153159    10.139441  -0.12801126    1.3438423    1.9156255    0.9637853    -1.183432            1    5.1126138    7.6178903    7.5373852   0.18256577 -0.0069561961  -0.14362255  -0.04120273    4.8994822    4.8306695   0.64357279        0.075    1.8658482            1   0.14301618    6.9922161    2.7718423    30.557551  0.029568487  -0.19829882 -0.0051644216    0.1562863   -1.7109896   0.36004299 
 1990000    12.166902    1.9849751    10.181927  -0.13206732    1.3236106     1.847822   0.97520782    -1.183432            1    5.3880649     7.738116    7.7166083   0.70947053 0.00082143563  -0.15207135 0.0056404475    5.1724074    5.1161001   0.65097576        0.075    1.8821974            1   0.14466128    6.9126998    2.7791033    30.557551 -0.011317124  -0.22208934   0.01082962   0.25431243  -0.28417511     7.427399 
 1991000    12.107989     1.999756    10.108233  -0.15025352    1.3334667    1.9066884   0.95244847    -1.183432            1    5.1301911    7.5902414    7.5905205   0.20981129 0.0079209605  -0.33821324  0.009894162    4.9195665    4.8495622   0.67265948        0.075    1.8862069            1   0.14947988    6.6898634    2.8126531    30.557551  0.012033836  -0.26570476   -0.0201877   0.19459201    3.8952774   -3.7063257 
 1992000    12.111047    1.9806091    10.130438  -0.13453586    1.3206993    1.8943792   0.93937137    -1.183432            1    5.3324694     7.786122    7.7396992   0.47158707   0.01059555  0.033167587  0.032362911    5.1247367    5.0536522   0.67192667        0.075    1.9218409            1   0.14931704    6.6971594    2.7977092    30.557551 0.0026684197  -0.21639213 -0.0060954683      0.22053 -0.069650911    -3.417197 
 1993000    12.113747    1.9767553    10.136991  -0.12234907    1.3181295    1.8619652   0.95666361    -1.183432            1         5.13    7.5954783    7.5491657    0.2453561  -0.01392071  0.048634712 -0.019533897    4.9184433    4.8559536   0.65897418        0.075    1.9424105            1   0.14643871    6.8287956    2.8109828    30.557551 -0.021765971  -0.22825961 -0.026062014   0.25734777    1.7693536   -5.9972829 
 1994000    12.070932    1.9417618     10.12917  -0.14747023    1.2947953     1.857221   0.92094811    -1.183432            1    5.1723211    7.5766322    7.6603396    0.2799914 -0.030846129  -0.33761831  0.066274164    4.9686625    4.8989729   0.65874004        0.075    1.9296725            1   0.14638668    6.8312228    2.8471171    30.557551  0.023329201   -0.1731258 -0.0098467562   0.13709785    1.9450387   0.25772969 
 1995000    12.090882     1.963423    10.127459  -0.13594827    1.3092393    1.8804143   0.92957433    -1.183432            1    5.1568318    7.5807246     7.557634   0.33213689 0.0047984685   0.01395822   0.03871022    4.9512657      4.88007   0.65141006        0.075    1.8637884            1   0.14475779    6.9080911    2.8230449    30.557551 -0.016523112  -0.15960965 -0.0018602056   0.19969669   -1.3663383   -1.3895289 
 1996000    12.109877    1.9726983    10.137179  -0.12984964    1.3154242    1.8857669   0.93631547    -1.183432            1    5.1636615    7.6252439    7.5677621   0.29797857 0.0028060391 -0.050230077   0.10151084    4.9566046    4.8861119   0.66775828        0.075    1.9103524            1   0.14839073    6.7389654    2.8064637    30.557551 -0.004628159  -0.17044312 -0.0015465873   0.19516389   0.70293657    2.7494194 
 1997000    12.107365    1.9921651      10.1152  -0.13872508     1.328405     1.894537   0.95210348    -1.183432            1    5.2199025    7.6667247    7.5767989   0.41618397  0.014855776  -0.26399456  0.025698459    5.0093543    4.9410621   0.67947661        0.075    1.9555327            1    0.1509948    6.6227445    2.8219637    30.557551  0.010907603  -0.27663617 -0.0006527324   0.17093163    1.8555001    3.6742203 
 1998000    12.069851    1.9704363    10.099414  -0.12502631    1.3139159    1.8838426   0.93508343    -1.183432            1    5.1924683    7.6916924     7.584523    0.3011895 -0.019836783  -0.35372904 -0.0046994094    4.9856838    4.9152019   0.66503779        0.075    1.9047308            1   0.14778617    6.7665328    2.8103515    30.557551 0.0088421869  -0.23222935 -0.024153498    0.1729626   -2.3958294 -0.054464406 
 1999000    12.093049    1.9873202    10.105729  -0.14289536    1.3251743    1.8727309   0.96123458    -1.183432            1    5.3685306    7.6845008      7.78545   0.63564109 -0.0095771542  -0.03179682 -0.00066659703    5.1559631    5.0928997    0.6652358        0.075    1.9470381            1   0.14783018    6.7645187    2.8250321    30.557551 0.00070488094   -0.2548183 -0.012451862   0.19628701  -0.55490063    2.9177905 
 2000000    12.111795    2.0014956    10.110299  -0.13331349    1.3346267    1.9068132   0.95429788    -1.183432            1    5.1600436    7.6053169    7.5794418   0.29537227 -0.0094956132 -0.019379503  0.057836919    4.9490101    4.8793964   0.67316087        0.075    1.9084061            1    0.1495913    6.6848805    2.7960799    30.557551 -0.021386119  -0.25027545 0.0014106411   0.12210974   0.73874935   -3.5048542 
Loop time of 338.452 on 32 procs for 1000000 steps with 4504 atoms

Performance: 1276400.449 tau/day, 2954.631 timesteps/s
100.0% CPU use with 32 MPI tasks x no OpenMP threads

MPI task timing breakdown:
Section |  min time  |  avg time  |  max time  |%varavg| %total
---------------------------------------------------------------
Pair    | 0.077904   | 5.0343     | 18.762     | 290.6 |  1.49
Bond    | 0.16824    | 16.2       | 59.506     | 488.2 |  4.79
Neigh   | 69.344     | 72.888     | 78.475     |  42.3 | 21.54
Comm    | 4.9853     | 30.804     | 79.793     | 465.3 |  9.10
Output  | 1.022      | 1.038      | 1.4148     |   6.6 |  0.31
Modify  | 133.8      | 183.67     | 221.12     | 280.1 | 54.27
Other   |            | 28.82      |            |       |  8.51

Nlocal:    140.75 ave 408 max 0 min
Histogram: 16 0 0 3 1 0 3 5 0 4
Nghost:    238.188 ave 647 max 0 min
Histogram: 16 0 0 0 4 0 3 1 4 4
Neighs:    182.656 ave 944 max 0 min
Histogram: 20 0 0 7 1 0 0 2 1 1

Total # of neighbors = 5845
Ave neighs/atom = 1.29774
Ave special neighs/atom = 6.98401
Neighbor list builds = 178035
Dangerous builds = 0
