9376
Atoms. Timestep: 4000000
1 15 3.55271e-15 10.6347
1 15.7937 29.2063 10.6347
1 15.8367 29.9088 9.78396
1 15.0661 29.1537 9.80404
1 16.5874 3.55271e-15 10.6347
1 17.3811 29.2063 10.6347
1 17.3878 29.8979 9.79666
1 16.6134 29.1698 9.82585
1 18.1748 3.55271e-15 10.6347
1 18.9685 29.2063 10.6347
1 18.9713 29.9396 9.80414
1 18.2078 29.1502 9.84319
1 19.7622 3.55271e-15 10.6347
1 20.5559 29.2063 10.6347
1 20.5723 29.9263 9.81053
1 19.7565 29.1711 9.83199
1 21.3496 3.55271e-15 10.6347
1 22.1433 29.2063 10.6347
1 22.1573 29.9433 9.82636
1 21.3846 29.1785 9.82523
1 22.937 3.55271e-15 10.6347
1 23.7307 29.2063 10.6347
1 23.7327 29.9092 9.80781
1 22.9471 29.159 9.84086
1 24.5244 3.55271e-15 10.6347
1 25.3181 29.2063 10.6347
1 25.318 29.9242 9.82141
1 24.5321 29.1598 9.81534
1 26.1118 3.55271e-15 10.6347
1 26.9055 29.2063 10.6347
1 26.8753 29.9331 9.8067
1 26.0902 29.1724 9.85755
1 27.6992 3.55271e-15 10.6347
1 28.4929 29.2063 10.6347
1 28.5127 29.9257 9.77414
1 27.6908 29.1745 9.84958
1 29.2866 3.55271e-15 10.6347
1 0.08031 29.2063 10.6347
1 0.0953854 29.9536 9.80459
1 29.2929 29.1979 9.80985
1 0.874011 3.55271e-15 10.6347
1 1.66771 29.2063 10.6347
1 1.68164 29.9401 9.82371
1 0.873713 29.2112 9.84681
1 2.46141 3.55271e-15 10.6347
1 3.25511 29.2063 10.6347
1 3.27065 29.916 9.81606
1 2.47524 29.1649 9.83803
1 4.04881 3.55271e-15 10.6347
1 4.84251 29.2063 10.6347
1 4.85265 29.9252 9.80856
1 4.05467 29.1896 9.84446
1 5.63621 3.55271e-15 10.6347
1 6.42991 29.2063 10.6347
1 6.42388 29.9493 9.82037
1 5.65336 29.1825 9.84195
1 7.22361 3.55271e-15 10.6347
1 8.01732 29.2063 10.6347
1 8.00014 29.9347 9.82386
1 7.22281 29.1615 9.85582
1 8.81102 3.55271e-15 10.6347
1 9.60472 29.2063 10.6347
1 9.60856 29.9211 9.79616
1 8.78554 29.1472 9.84629
1 10.3984 3.55271e-15 10.6347
1 11.1921 29.2063 10.6347
1 11.19 29.9263 9.80333
1 10.412 29.2021 9.83281
1 11.9858 3.55271e-15 10.6347
1 12.7795 29.2063 10.6347
1 12.7648 29.9532 9.80062
1 11.9911 29.1954 9.81821
1 13.5732 3.55271e-15 10.6347
1 14.3669 29.2063 10.6347
1 14.3043 29.9079 9.78982
1 13.5425 29.1956 9.83784
1 15 28.4126 10.6347
1 15.7937 27.6189 10.6347
1 15.8016 28.3959 9.84565
1 15.0624 27.5986 9.79737
1 16.5874 28.4126 10.6347
1 17.3811 27.6189 10.6347
1 17.3873 28.3929 9.82474
1 16.613 27.6077 9.83523
1 18.1748 28.4126 10.6347
1 18.9685 27.6189 10.6347
1 18.9687 28.3743 9.82717
1 18.1748 27.5832 9.8275
1 19.7622 28.4126 10.6347
1 20.5559 27.6189 10.6347
1 20.5476 28.3976 9.82513
1 19.7563 27.581 9.83368
1 21.3496 28.4126 10.6347
1 22.1433 27.6189 10.6347
1 22.1616 28.3948 9.83884
1 21.3452 27.594 9.82622
1 22.937 28.4126 10.6347
1 23.7307 27.6189 10.6347
1 23.7408 28.3959 9.83679
1 22.9447 27.6181 9.84894
1 24.5244 28.4126 10.6347
1 25.3181 27.6189 10.6347
1 25.321 28.3892 9.86229
1 24.5248 27.5978 9.84504
1 26.1118 28.4126 10.6347
1 26.9055 27.6189 10.6347
1 26.9242 28.3975 9.84444
1 26.1258 27.6222 9.84095
1 27.6992 28.4126 10.6347
1 28.4929 27.6189 10.6347
1 28.5051 28.4077 9.8433
1 27.7112 27.6225 9.84001
1 29.2866 28.4126 10.6347
1 0.08031 27.6189 10.6347
1 0.0840081 28.4151 9.81661
1 29.2909 27.6052 9.82898
1 0.874011 28.4126 10.6347
1 1.66771 27.6189 10.6347
1 1.66455 28.4076 9.8589
1 0.869028 27.6072 9.82657
1 2.46141 28.4126 10.6347
1 3.25511 27.6189 10.6347
1 3.27936 28.3933 9.85301
1 2.43499 27.6337 9.84008
1 4.04881 28.4126 10.6347
1 4.84251 27.6189 10.6347
1 4.8526 28.3854 9.85896
1 4.08901 27.5879 9.84561
1 5.63621 28.4126 10.6347
1 6.42991 27.6189 10.6347
1 6.41387 28.392 9.85841
1 5.62457 27.5965 9.81122
1 7.22361 28.4126 10.6347
1 8.01732 27.6189 10.6347
1 7.98838 28.3747 9.8289
1 7.20487 27.5862 9.83681
1 8.81102 28.4126 10.6347
1 9.60472 27.6189 10.6347
1 9.62115 28.4153 9.83725
1 8.80516 27.6002 9.83756
1 10.3984 28.4126 10.6347
1 11.1921 27.6189 10.6347
1 11.2114 28.3948 9.80612
1 10.4099 27.6096 9.82576
1 11.9858 28.4126 10.6347
1 12.7795 27.6189 10.6347
1 12.7518 28.3904 9.84875
1 11.9624 27.5764 9.8372
1 13.5732 28.4126 10.6347
1 14.3669 27.6189 10.6347
1 14.2959 28.4035 9.80297
1 13.5392 27.6014 9.82247
1 15 26.8252 10.6347
1 15.7937 26.0315 10.6347
1 15.8226 26.8207 9.79532
1 15.075 26.03 9.80257
1 16.5874 26.8252 10.6347
1 17.3811 26.0315 10.6347
1 17.4055 26.8146 9.85468
1 16.5961 26.0047 9.85904
1 18.1748 26.8252 10.6347
1 18.9685 26.0315 10.6347
1 18.9687 26.8018 9.82586
1 18.2143 25.9891 9.82128
1 19.7622 26.8252 10.6347
1 20.5559 26.0315 10.6347
1 20.5683 26.8163 9.83595
1 19.7644 26.0141 9.85653
1 21.3496 26.8252 10.6347
1 22.1433 26.0315 10.6347
1 22.164 26.8252 9.8284
1 21.3766 26.0225 9.85206
1 22.937 26.8252 10.6347
1 23.7307 26.0315 10.6347
1 23.7135 26.8176 9.84214
1 22.9394 26.0318 9.81741
1 24.5244 26.8252 10.6347
1 25.3181 26.0315 10.6347
1 25.3251 26.8183 9.82913
1 24.5286 26.0331 9.83674
1 26.1118 26.8252 10.6347
1 26.9055 26.0315 10.6347
1 26.9321 26.8058 9.83076
1 26.1392 26.0303 9.84704
1 27.6992 26.8252 10.6347
1 28.4929 26.0315 10.6347
1 28.4899 26.7993 9.84976
1 27.7049 26.0321 9.84577
1 29.2866 26.8252 10.6347
1 0.08031 26.0315 10.6347
1 0.086887 26.8219 9.84683
1 29.2904 26.0325 9.82958
1 0.874011 26.8252 10.6347
1 1.66771 26.0315 10.6347
1 1.65585 26.8411 9.84308
1 0.882775 26.0321 9.8246
1 2.46141 26.8252 10.6347
1 3.25511 26.0315 10.6347
1 3.2473 26.8422 9.84513
1 2.45727 26.0622 9.82516
1 4.04881 26.8252 10.6347
1 4.84251 26.0315 10.6347
1 4.85976 26.7878 9.83438
1 4.05069 26.0254 9.82115
1 5.63621 26.8252 10.6347
1 6.42991 26.0315 10.6347
1 6.42195 26.8099 9.82413
1 5.64685 26.0361 9.82083
1 7.22361 26.8252 10.6347
1 8.01732 26.0315 10.6347
1 8.02749 26.8329 9.848
1 7.2334 26.0537 9.85115
1 8.81102 26.8252 10.6347
1 9.60472 26.0315 10.6347
1 9.60177 26.8309 9.84079
1 8.79123 26.0212 9.85263
1 10.3984 26.8252 10.6347
1 11.1921 26.0315 10.6347
1 11.1926 26.8131 9.84404
1 10.3986 26.0367 9.84859
1 11.9858 26.8252 10.6347
1 12.7795 26.0315 10.6347
1 12.7618 26.8104 9.85248
1 11.9592 26.008 9.81398
1 13.5732 26.8252 10.6347
1 14.3669 26.0315 10.6347
1 14.2872 26.8065 9.8155
1 13.5339 26.0234 9.83048
1 15 25.2378 10.6347
1 15.7937 24.4441 10.6347
1 15.8222 25.2102 9.83196
1 15.0463 24.4471 9.8167
1 16.5874 25.2378 10.6347
1 17.3811 24.4441 10.6347
1 17.3918 25.2266 9.8303
1 16.6057 24.4156 9.82515
1 18.1748 25.2378 10.6347
1 18.9685 24.4441 10.6347
1 18.9954 25.2156 9.8174
1 18.201 24.4275 9.83756
1 19.7622 25.2378 10.6347
1 20.5559 24.4441 10.6347
1 20.561 25.2277 9.84848
1 19.768 24.4334 9.84247
1 21.3496 25.2378 10.6347
1 22.1433 24.4441 10.6347
1 22.1715 25.2237 9.85581
1 21.3625 24.4455 9.83144
1 22.937 25.2378 10.6347
1 23.7307 24.4441 10.6347
1 23.7225 25.2338 9.826
1 22.9337 24.4152 9.83685
1 24.5244 25.2378 10.6347
1 25.3181 24.4441 10.6347
1 25.3443 25.2342 9.85639
1 24.5335 24.4114 9.84296
1 26.1118 25.2378 10.6347
1 26.9055 24.4441 10.6347
1 26.9171 25.2494 9.83572
1 26.1226 24.4479 9.86067
1 27.6992 25.2378 10.6347
1 28.4929 24.4441 10.6347
1 28.4942 25.2134 9.83541
1 27.6797 24.4451 9.83383
1 29.2866 25.2378 10.6347
1 0.08031 24.4441 10.6347
1 0.086174 25.2311 9.83656
1 29.291 24.4191 9.85839
1 0.874011 25.2378 10.6347
1 1.66771 24.4441 10.6347
1 1.66953 25.2492 9.84282
1 0.886969 24.4283 9.82976
1 2.46141 25.2378 10.6347
1 3.25511 24.4441 10.6347
1 3.24822 25.2237 9.85784
1 2.45363 24.4521 9.81883
1 4.04881 25.2378 10.6347
1 4.84251 24.4441 10.6347
1 4.84842 25.2633 9.85469
1 4.03788 24.4382 9.83618
1 5.63621 25.2378 10.6347
1 6.42991 24.4441 10.6347
1 6.45701 25.2436 9.81963
1 5.61506 24.4555 9.8273
1 7.22361 25.2378 10.6347
1 8.01732 24.4441 10.6347
1 7.99053 25.2315 9.83215
1 7.20487 24.4563 9.82278
1 8.81102 25.2378 10.6347
1 9.60472 24.4441 10.6347
1 9.61042 25.2443 9.84559
1 8.78976 24.4409 9.85285
1 10.3984 25.2378 10.6347
1 11.1921 24.4441 10.6347
1 11.1981 25.2222 9.84746
1 10.3556 24.419 9.85446
1 11.9858 25.2378 10.6347
1 12.7795 24.4441 10.6347
1 12.7639 25.2639 9.85388
1 11.9941 24.4428 9.81418
1 13.5732 25.2378 10.6347
1 14.3669 24.4441 10.6347
1 14.3103 25.2388 9.81034
1 13.5344 24.447 9.80849
1 15 23.6504 10.6347
1 15.7937 22.8567 10.6347
1 15.7831 23.6651 9.83365
1 15.0789 22.8522 9.82477
1 16.5874 23.6504 10.6347
1 17.3811 22.8567 10.6347
1 17.4029 23.6447 9.83817
1 16.609 22.8761 9.84331
1 18.1748 23.6504 10.6347
1 18.9685 22.8567 10.6347
1 18.9901 23.6321 9.8506
1 18.172 22.8485 9.83956
1 19.7622 23.6504 10.6347
1 20.5559 22.8567 10.6347
1 20.5594 23.63 9.84209
1 19.7711 22.8625 9.83754
1 21.3496 23.6504 10.6347
1 22.1433 22.8567 10.6347
1 22.113 23.6426 9.81927
1 21.3388 22.8478 9.8434
1 22.937 23.6504 10.6347
1 23.7307 22.8567 10.6347
1 23.7319 23.665 9.82688
1 22.911 22.8512 9.85421
1 24.5244 23.6504 10.6347
1 25.3181 22.8567 10.6347
1 25.3062 23.6254 9.83467
1 24.5075 22.8393 9.84822
1 26.1118 23.6504 10.6347
1 26.9055 22.8567 10.6347
1 26.906 23.673 9.8334
1 26.1201 22.8459 9.84711
1 27.6992 23.6504 10.6347
1 28.4929 22.8567 10.6347
1 28.4771 23.6358 9.85314
1 27.6671 22.8539 9.82979
1 29.2866 23.6504 10.6347
1 0.08031 22.8567 10.6347
1 0.0751007 23.6621 9.83998
1 29.2606 22.8413 9.83666
1 0.874011 23.6504 10.6347
1 1.66771 22.8567 10.6347
1 1.68399 23.6558 9.84902
1 0.876794 22.8559 9.82638
1 2.46141 23.6504 10.6347
1 3.25511 22.8567 10.6347
1 3.25646 23.6339 9.84085
1 2.46697 22.8533 9.85011
1 4.04881 23.6504 10.6347
1 4.84251 22.8567 10.6347
1 4.82701 23.6565 9.81024
1 4.03374 22.8647 9.83747
1 5.63621 23.6504 10.6347
1 6.42991 22.8567 10.6347
1 6.42488 23.6725 9.82982
1 5.6206 22.8436 9.85408
1 7.22361 23.6504 10.6347
1 8.01732 22.8567 10.6347
1 7.99704 23.6549 9.82088
1 7.20987 22.8681 9.84389
1 8.81102 23.6504 10.6347
1 9.60472 22.8567 10.6347
1 9.57881 23.6283 9.82662
1 8.8019 22.8389 9.8392
1 10.3984 23.6504 10.6347
1 11.1921 22.8567 10.6347
1 11.1793 23.6629 9.8473
1 10.385 22.8429 9.86393
1 11.9858 23.6504 10.6347
1 12.7795 22.8567 10.6347
1 12.7519 23.6491 9.83075
1 11.9599 22.8708 9.83733
1 13.5732 23.6504 10.6347
1 14.3669 22.8567 10.6347
1 14.305 23.6477 9.80065
1 13.5778 22.8407 9.82869
1 15 22.063 10.6347
1 15.7937 21.2693 10.6347
1 15.8275 22.0424 9.84615
1 15.0772 21.2719 9.82691
1 16.5874 22.063 10.6347
1 17.3811 21.2693 10.6347
1 17.384 22.0508 9.82824
1 16.5909 21.2621 9.83002
1 18.1748 22.063 10.6347
1 18.9685 21.2693 10.6347
1 18.9965 22.0639 9.83883
1 18.171 21.2535 9.88536
1 19.7622 22.063 10.6347
1 20.5559 21.2693 10.6347
1 20.5581 22.0563 9.83265
1 19.7817 21.2548 9.85114
1 21.3496 22.063 10.6347
1 22.1433 21.2693 10.6347
1 22.1322 22.0897 9.83167
1 21.332 21.2591 9.84802
1 22.937 22.063 10.6347
1 23.7307 21.2693 10.6347
1 23.7293 22.073 9.82648
1 22.949 21.2755 9.85398
1 24.5244 22.063 10.6347
1 25.3181 21.2693 10.6347
1 25.336 22.0763 9.83889
1 24.5326 21.2879 9.83494
1 26.1118 22.063 10.6347
1 26.9055 21.2693 10.6347
1 26.8896 22.0493 9.8478
1 26.1202 21.2677 9.83556
1 27.6992 22.063 10.6347
1 28.4929 21.2693 10.6347
1 28.5007 22.0581 9.84589
1 27.7115 21.2672 9.80304
1 29.2866 22.063 10.6347
1 0.08031 21.2693 10.6347
1 0.0806986 22.0792 9.86069
1 29.2799 21.2759 9.86173
1 0.874011 22.063 10.6347
1 1.66771 21.2693 10.6347
1 1.64351 22.0688 9.83227
1 0.874713 21.2866 9.84636
1 2.46141 22.063 10.6347
1 3.25511 21.2693 10.6347
1 3.25876 22.0763 9.85364
1 2.43162 21.2894 9.82721
1 4.04881 22.063 10.6347
1 4.84251 21.2693 10.6347
1 4.85027 22.0506 9.82961
1 4.0069 21.288 9.82565
1 5.63621 22.063 10.6347
1 6.42991 21.2693 10.6347
1 6.42047 22.0642 9.83493
1 5.63384 21.2482 9.82413
1 7.22361 22.063 10.6347
1 8.01732 21.2693 10.6347
1 7.98407 22.0657 9.84135
1 7.21475 21.2437 9.84393
1 8.81102 22.063 10.6347
1 9.60472 21.2693 10.6347
1 9.57415 22.0439 9.8386
1 8.76934 21.257 9.82101
1 10.3984 22.063 10.6347
1 11.1921 21.2693 10.6347
1 11.1661 22.0643 9.8486
1 10.3894 21.2681 9.84538
1 11.9858 22.063 10.6347
1 12.7795 21.2693 10.6347
1 12.7717 22.0516 9.81884
1 11.9878 21.2558 9.82747
1 13.5732 22.063 10.6347
1 14.3669 21.2693 10.6347
1 14.2961 22.0567 9.81571
1 13.53 21.2775 9.85662
1 15 20.4756 10.6347
1 15.7937 19.6819 10.6347
1 15.8248 20.4882 9.817
1 15.069 19.6869 9.80841
1 16.5874 20.4756 10.6347
1 17.3811 19.6819 10.6347
1 17.3764 20.4712 9.84909
1 16.6008 19.687 9.81117
1 18.1748 20.4756 10.6347
1 18.9685 19.6819 10.6347
1 18.9677 20.4682 9.84288
1 18.1731 19.6835 9.861
1 19.7622 20.4756 10.6347
1 20.5559 19.6819 10.6347
1 20.551 20.4776 9.83351
1 19.7467 19.6817 9.84348
1 21.3496 20.4756 10.6347
1 22.1433 19.6819 10.6347
1 22.1404 20.461 9.84812
1 21.3549 19.6828 9.8164
1 22.937 20.4756 10.6347
1 23.7307 19.6819 10.6347
1 23.7389 20.4975 9.83586
1 22.9255 19.6869 9.85485
1 24.5244 20.4756 10.6347
1 25.3181 19.6819 10.6347
1 25.3135 20.5103 9.86574
1 24.5025 19.7071 9.84042
1 26.1118 20.4756 10.6347
1 26.9055 19.6819 10.6347
1 26.9134 20.4663 9.85077
1 26.0696 19.6835 9.8572
1 27.6992 20.4756 10.6347
1 28.4929 19.6819 10.6347
1 28.4851 20.4791 9.83175
1 27.7002 19.6978 9.83594
1 29.2866 20.4756 10.6347
1 0.08031 19.6819 10.6347
1 0.0684999 20.4797 9.8241
1 29.2537 19.681 9.8331
1 0.874011 20.4756 10.6347
1 1.66771 19.6819 10.6347
1 1.6727 20.4867 9.83829
1 0.865864 19.7032 9.84085
1 2.46141 20.4756 10.6347
1 3.25511 19.6819 10.6347
1 3.24862 20.4842 9.83292
1 2.43764 19.69 9.84046
1 4.04881 20.4756 10.6347
1 4.84251 19.6819 10.6347
1 4.85534 20.4763 9.84692
1 4.04222 19.6504 9.84521
1 5.63621 20.4756 10.6347
1 6.42991 19.6819 10.6347
1 6.42974 20.473 9.85906
1 5.62965 19.6848 9.83934
1 7.22361 20.4756 10.6347
1 8.01732 19.6819 10.6347
1 8.02885 20.4974 9.83333
1 7.21907 19.6932 9.82668
1 8.81102 20.4756 10.6347
1 9.60472 19.6819 10.6347
1 9.59938 20.4909 9.85247
1 8.81455 19.6728 9.84417
1 10.3984 20.4756 10.6347
1 11.1921 19.6819 10.6347
1 11.1868 20.4874 9.83203
1 10.4176 19.6892 9.84769
1 11.9858 20.4756 10.6347
1 12.7795 19.6819 10.6347
1 12.7384 20.4708 9.85037
1 11.9682 19.6833 9.8277
1 13.5732 20.4756 10.6347
1 14.3669 19.6819 10.6347
1 14.301 20.4948 9.813
1 13.5628 19.691 9.83222
1 15 18.8882 10.6347
1 15.7937 18.0945 10.6347
1 15.8076 18.9123 9.82564
1 15.0868 18.0854 9.79633
1 16.5874 18.8882 10.6347
1 17.3811 18.0945 10.6347
1 17.3701 18.9104 9.82616
1 16.5757 18.1289 9.8505
1 18.1748 18.8882 10.6347
1 18.9685 18.0945 10.6347
1 18.9831 18.9046 9.85694
1 18.1531 18.1181 9.86067
1 19.7622 18.8882 10.6347
1 20.5559 18.0945 10.6347
1 20.5657 18.9012 9.85329
1 19.7682 18.076 9.85278
1 21.3496 18.8882 10.6347
1 22.1433 18.0945 10.6347
1 22.1292 18.893 9.84798
1 21.3494 18.0997 9.82335
1 22.937 18.8882 10.6347
1 23.7307 18.0945 10.6347
1 23.7307 18.8815 9.83252
1 22.9349 18.0829 9.86593
1 24.5244 18.8882 10.6347
1 25.3181 18.0945 10.6347
1 25.2996 18.8929 9.82189
1 24.5307 18.0824 9.84424
1 26.1118 18.8882 10.6347
1 26.9055 18.0945 10.6347
1 26.897 18.9203 9.83839
1 26.117 18.0994 9.83193
1 27.6992 18.8882 10.6347
1 28.4929 18.0945 10.6347
1 28.4985 18.8727 9.86178
1 27.668 18.107 9.83895
1 29.2866 18.8882 10.6347
1 0.08031 18.0945 10.6347
1 0.055175 18.878 9.82908
1 29.2932 18.0694 9.84888
1 0.874011 18.8882 10.6347
1 1.66771 18.0945 10.6347
1 1.65874 18.8883 9.85048
1 0.858516 18.1184 9.83569
1 2.46141 18.8882 10.6347
1 3.25511 18.0945 10.6347
1 3.25584 18.8667 9.83266
1 2.45291 18.1088 9.83451
1 4.04881 18.8882 10.6347
1 4.84251 18.0945 10.6347
1 4.86088 18.8844 9.85197
1 4.06137 18.1137 9.84199
1 5.63621 18.8882 10.6347
1 6.42991 18.0945 10.6347
1 6.40478 18.879 9.85175
1 5.6237 18.0831 9.85458
1 7.22361 18.8882 10.6347
1 8.01732 18.0945 10.6347
1 7.98893 18.9105 9.83749
1 7.22146 18.1165 9.85036
1 8.81102 18.8882 10.6347
1 9.60472 18.0945 10.6347
1 9.59713 18.8767 9.84313
1 8.79732 18.0979 9.84523
1 10.3984 18.8882 10.6347
1 11.1921 18.0945 10.6347
1 11.2043 18.8995 9.80922
1 10.3938 18.0879 9.84241
1 11.9858 18.8882 10.6347
1 12.7795 18.0945 10.6347
1 12.7618 18.8949 9.82748
1 12.0046 18.1015 9.85485
1 13.5732 18.8882 10.6347
1 14.3669 18.0945 10.6347
1 14.3083 18.8893 9.81182
1 13.5342 18.0875 9.83505
1 15 17.3008 10.6347
1 15.7937 16.5071 10.6347
1 15.8408 17.3333 9.82518
1 15.0635 16.5042 9.82711
1 16.5874 17.3008 10.6347
1 17.3811 16.5071 10.6347
1 17.3876 17.2956 9.84415
1 16.5993 16.4894 9.82307
1 18.1748 17.3008 10.6347
1 18.9685 16.5071 10.6347
1 18.9681 17.3036 9.86777
1 18.1893 16.4829 9.8583
1 19.7622 17.3008 10.6347
1 20.5559 16.5071 10.6347
1 20.5713 17.2814 9.84088
1 19.7797 16.4854 9.83388
1 21.3496 17.3008 10.6347
1 22.1433 16.5071 10.6347
1 22.1503 17.2856 9.85057
1 21.3734 16.4966 9.86234
1 22.937 17.3008 10.6347
1 23.7307 16.5071 10.6347
1 23.737 17.3056 9.83351
1 22.9474 16.487 9.85117
1 24.5244 17.3008 10.6347
1 25.3181 16.5071 10.6347
1 25.3314 17.2996 9.839
1 24.5124 16.4915 9.82618
1 26.1118 17.3008 10.6347
1 26.9055 16.5071 10.6347
1 26.9165 17.2696 9.84141
1 26.1158 16.5127 9.83283
1 27.6992 17.3008 10.6347
1 28.4929 16.5071 10.6347
1 28.5086 17.2704 9.8488
1 27.6916 16.5144 9.84917
1 29.2866 17.3008 10.6347
1 0.08031 16.5071 10.6347
1 0.0764225 17.2905 9.84507
1 29.2682 16.5023 9.84293
1 0.874011 17.3008 10.6347
1 1.66771 16.5071 10.6347
1 1.6456 17.3357 9.86028
1 0.867762 16.5142 9.8608
1 2.46141 17.3008 10.6347
1 3.25511 16.5071 10.6347
1 3.27132 17.315 9.83443
1 2.46631 16.4889 9.83265
1 4.04881 17.3008 10.6347
1 4.84251 16.5071 10.6347
1 4.82818 17.3306 9.8314
1 4.03624 16.5109 9.84347
1 5.63621 17.3008 10.6347
1 6.42991 16.5071 10.6347
1 6.43318 17.34 9.87634
1 5.62857 16.5305 9.83467
1 7.22361 17.3008 10.6347
1 8.01732 16.5071 10.6347
1 7.99867 17.31 9.84032
1 7.19584 16.4888 9.85672
1 8.81102 17.3008 10.6347
1 9.60472 16.5071 10.6347
1 9.57945 17.3266 9.83376
1 8.8059 16.4955 9.83634
1 10.3984 17.3008 10.6347
1 11.1921 16.5071 10.6347
1 11.1927 17.3122 9.85737
1 10.3982 16.5456 9.85381
1 11.9858 17.3008 10.6347
1 12.7795 16.5071 10.6347
1 12.779 17.312 9.8283
1 11.9836 16.5094 9.83563
1 13.5732 17.3008 10.6347
1 14.3669 16.5071 10.6347
1 14.2995 17.3085 9.80638
1 13.5635 16.5107 9.8214
1 15 15.7134 10.6347
1 15.7937 14.9197 10.6347
1 15.8409 15.6925 9.826
1 15.079 14.9454 9.8075
1 16.5874 15.7134 10.6347
1 17.3811 14.9197 10.6347
1 17.39 15.7057 9.8414
1 16.6306 14.9082 9.83052
1 18.1748 15.7134 10.6347
1 18.9685 14.9197 10.6347
1 18.9993 15.6911 9.83904
1 18.1608 14.9058 9.86611
1 19.7622 15.7134 10.6347
1 20.5559 14.9197 10.6347
1 20.5537 15.7135 9.82103
1 19.7798 14.8983 9.84433
1 21.3496 15.7134 10.6347
1 22.1433 14.9197 10.6347
1 22.1165 15.7071 9.8438
1 21.3448 14.9419 9.83234
1 22.937 15.7134 10.6347
1 23.7307 14.9197 10.6347
1 23.7201 15.7245 9.87724
1 22.9078 14.9159 9.83323
1 24.5244 15.7134 10.6347
1 25.3181 14.9197 10.6347
1 25.3066 15.7131 9.83145
1 24.5552 14.9124 9.8576
1 26.1118 15.7134 10.6347
1 26.9055 14.9197 10.6347
1 26.9099 15.7 9.86809
1 26.1056 14.9223 9.8523
1 27.6992 15.7134 10.6347
1 28.4929 14.9197 10.6347
1 28.4702 15.6932 9.84894
1 27.7067 14.9097 9.85019
1 29.2866 15.7134 10.6347
1 0.08031 14.9197 10.6347
1 0.084266 15.7178 9.8255
1 29.2868 14.9262 9.85969
1 0.874011 15.7134 10.6347
1 1.66771 14.9197 10.6347
1 1.66968 15.7493 9.82123
1 0.876529 14.9248 9.85215
1 2.46141 15.7134 10.6347
1 3.25511 14.9197 10.6347
1 3.25632 15.7192 9.85199
1 2.46295 14.9591 9.85227
1 4.04881 15.7134 10.6347
1 4.84251 14.9197 10.6347
1 4.84696 15.7099 9.86831
1 4.06028 14.929 9.8586
1 5.63621 15.7134 10.6347
1 6.42991 14.9197 10.6347
1 6.42849 15.731 9.82916
1 5.65072 14.9267 9.84431
1 7.22361 15.7134 10.6347
1 8.01732 14.9197 10.6347
1 7.99907 15.6961 9.81729
1 7.20042 14.9074 9.82253
1 8.81102 15.7134 10.6347
1 9.60472 14.9197 10.6347
1 9.61316 15.7129 9.81992
1 8.82023 14.8947 9.85409
1 10.3984 15.7134 10.6347
1 11.1921 14.9197 10.6347
1 11.1722 15.7183 9.84916
1 10.3835 14.9289 9.845
1 11.9858 15.7134 10.6347
1 12.7795 14.9197 10.6347
1 12.7658 15.742 9.84572
1 11.9894 14.9252 9.86172
1 13.5732 15.7134 10.6347
1 14.3669 14.9197 10.6347
1 14.2962 15.7172 9.83933
1 13.5446 14.9063 9.84029
1 15 14.126 10.6347
1 15.7937 13.3323 10.6347
1 15.82 14.1136 9.83979
1 15.0633 13.3309 9.83391
1 16.5874 14.126 10.6347
1 17.3811 13.3323 10.6347
1 17.392 14.0918 9.87185
1 16.6072 13.3212 9.84415
1 18.1748 14.126 10.6347
1 18.9685 13.3323 10.6347
1 18.996 14.1386 9.87938
1 18.2016 13.3405 9.86372
1 19.7622 14.126 10.6347
1 20.5559 13.3323 10.6347
1 20.5512 14.1438 9.85121
1 19.7565 13.3214 9.83401
1 21.3496 14.126 10.6347
1 22.1433 13.3323 10.6347
1 22.1368 14.1166 9.84573
1 21.363 13.3469 9.85835
1 22.937 14.126 10.6347
1 23.7307 13.3323 10.6347
1 23.7176 14.1122 9.83787
1 22.934 13.3342 9.85216
1 24.5244 14.126 10.6347
1 25.3181 13.3323 10.6347
1 25.3346 14.1162 9.8415
1 24.5259 13.3371 9.84304
1 26.1118 14.126 10.6347
1 26.9055 13.3323 10.6347
1 26.9169 14.1089 9.84672
1 26.1267 13.3242 9.84506
1 27.6992 14.126 10.6347
1 28.4929 13.3323 10.6347
1 28.4816 14.1286 9.86257
1 27.7066 13.3075 9.83555
1 29.2866 14.126 10.6347
1 0.08031 13.3323 10.6347
1 0.0908727 14.1182 9.84009
1 29.2497 13.3301 9.82578
1 0.874011 14.126 10.6347
1 1.66771 13.3323 10.6347
1 1.65153 14.1194 9.83956
1 0.873313 13.3371 9.83833
1 2.46141 14.126 10.6347
1 3.25511 13.3323 10.6347
1 3.2485 14.1341 9.83681
1 2.46864 13.3218 9.84176
1 4.04881 14.126 10.6347
1 4.84251 13.3323 10.6347
1 4.84926 14.118 9.8387
1 4.05382 13.3646 9.87075
1 5.63621 14.126 10.6347
1 6.42991 13.3323 10.6347
1 6.41393 14.1091 9.84017
1 5.64627 13.3571 9.8671
1 7.22361 14.126 10.6347
1 8.01732 13.3323 10.6347
1 8.02233 14.1277 9.83594
1 7.20128 13.3373 9.8196
1 8.81102 14.126 10.6347
1 9.60472 13.3323 10.6347
1 9.62226 14.139 9.84445
1 8.79298 13.3337 9.82023
1 10.3984 14.126 10.6347
1 11.1921 13.3323 10.6347
1 11.1983 14.1261 9.86766
1 10.3933 13.3339 9.84374
1 11.9858 14.126 10.6347
1 12.7795 13.3323 10.6347
1 12.7761 14.1234 9.8352
1 12.0034 13.3589 9.8118
1 13.5732 14.126 10.6347
1 14.3669 13.3323 10.6347
1 14.3022 14.1577 9.79354
1 13.5605 13.3217 9.81569
1 15 12.5386 10.6347
1 15.7937 11.7449 10.6347
1 15.8349 12.5503 9.83473
1 15.0883 11.7233 9.79768
1 16.5874 12.5386 10.6347
1 17.3811 11.7449 10.6347
1 17.4018 12.5304 9.8324
1 16.6025 11.724 9.80567
1 18.1748 12.5386 10.6347
1 18.9685 11.7449 10.6347
1 18.9829 12.5388 9.81695
1 18.1752 11.7555 9.85806
1 19.7622 12.5386 10.6347
1 20.5559 11.7449 10.6347
1 20.5702 12.5539 9.8399
1 19.7597 11.7398 9.84361
1 21.3496 12.5386 10.6347
1 22.1433 11.7449 10.6347
1 22.1384 12.554 9.85123
1 21.3438 11.7287 9.87006
1 22.937 12.5386 10.6347
1 23.7307 11.7449 10.6347
1 23.7385 12.5375 9.84557
1 22.9419 11.742 9.84881
1 24.5244 12.5386 10.6347
1 25.3181 11.7449 10.6347
1 25.3217 12.5468 9.83919
1 24.5423 11.7444 9.84212
1 26.1118 12.5386 10.6347
1 26.9055 11.7449 10.6347
1 26.8896 12.534 9.86514
1 26.0951 11.723 9.83101
1 27.6992 12.5386 10.6347
1 28.4929 11.7449 10.6347
1 28.4784 12.4969 9.83917
1 27.6949 11.7539 9.84243
1 29.2866 12.5386 10.6347
1 0.08031 11.7449 10.6347
1 0.0896761 12.5562 9.8576
1 29.3141 11.7523 9.84532
1 0.874011 12.5386 10.6347
1 1.66771 11.7449 10.6347
1 1.6593 12.5282 9.83567
1 0.844976 11.7318 9.85737
1 2.46141 12.5386 10.6347
1 3.25511 11.7449 10.6347
1 3.24416 12.5282 9.85108
1 2.44775 11.7293 9.85011
1 4.04881 12.5386 10.6347
1 4.84251 11.7449 10.6347
1 4.85701 12.5361 9.83763
1 4.0753 11.7336 9.86723
1 5.63621 12.5386 10.6347
1 6.42991 11.7449 10.6347
1 6.4226 12.5467 9.83114
1 5.63733 11.7478 9.83778
1 7.22361 12.5386 10.6347
1 8.01732 11.7449 10.6347
1 8.0016 12.5285 9.85271
1 7.22571 11.7469 9.82845
1 8.81102 12.5386 10.6347
1 9.60472 11.7449 10.6347
1 9.5909 12.5428 9.84156
1 8.80783 11.7502 9.84932
1 10.3984 12.5386 10.6347
1 11.1921 11.7449 10.6347
1 11.1972 12.5254 9.83172
1 10.3757 11.7649 9.81698
1 11.9858 12.5386 10.6347
1 12.7795 11.7449 10.6347
1 12.7684 12.5271 9.8373
1 11.959 11.727 9.8525
1 13.5732 12.5386 10.6347
1 14.3669 11.7449 10.6347
1 14.323 12.5381 9.82575
1 13.5315 11.7435 9.83289
1 15 10.9512 10.6347
1 15.7937 10.1575 10.6347
1 15.8381 10.92 9.84923
1 15.0634 10.1518 9.79913
1 16.5874 10.9512 10.6347
1 17.3811 10.1575 10.6347
1 17.4034 10.9346 9.84749
1 16.6372 10.1332 9.83035
1 18.1748 10.9512 10.6347
1 18.9685 10.1575 10.6347
1 18.9842 10.9544 9.83672
1 18.1768 10.1511 9.85276
1 19.7622 10.9512 10.6347
1 20.5559 10.1575 10.6347
1 20.5457 10.9582 9.84126
1 19.7541 10.1849 9.8641
1 21.3496 10.9512 10.6347
1 22.1433 10.1575 10.6347
1 22.15 10.9315 9.84972
1 21.3382 10.1398 9.86623
1 22.937 10.9512 10.6347
1 23.7307 10.1575 10.6347
1 23.7461 10.9497 9.82299
1 22.9432 10.1652 9.8499
1 24.5244 10.9512 10.6347
1 25.3181 10.1575 10.6347
1 25.2932 10.9557 9.83372
1 24.5014 10.1597 9.84704
1 26.1118 10.9512 10.6347
1 26.9055 10.1575 10.6347
1 26.882 10.9399 9.84037
1 26.0753 10.1296 9.84673
1 27.6992 10.9512 10.6347
1 28.4929 10.1575 10.6347
1 28.4933 10.9567 9.83814
1 27.6934 10.1555 9.84812
1 29.2866 10.9512 10.6347
1 0.08031 10.1575 10.6347
1 0.0721886 10.9408 9.85938
1 29.2813 10.1386 9.83347
1 0.874011 10.9512 10.6347
1 1.66771 10.1575 10.6347
1 1.6367 10.9498 9.85598
1 0.862502 10.13 9.8338
1 2.46141 10.9512 10.6347
1 3.25511 10.1575 10.6347
1 3.28058 10.9481 9.83384
1 2.43068 10.1702 9.85699
1 4.04881 10.9512 10.6347
1 4.84251 10.1575 10.6347
1 4.85029 10.9381 9.86471
1 4.04523 10.1679 9.84922
1 5.63621 10.9512 10.6347
1 6.42991 10.1575 10.6347
1 6.46208 10.9304 9.85683
1 5.65066 10.1613 9.84342
1 7.22361 10.9512 10.6347
1 8.01732 10.1575 10.6347
1 8.00196 10.9449 9.83541
1 7.22849 10.1569 9.85533
1 8.81102 10.9512 10.6347
1 9.60472 10.1575 10.6347
1 9.59712 10.969 9.85179
1 8.80189 10.1513 9.82876
1 10.3984 10.9512 10.6347
1 11.1921 10.1575 10.6347
1 11.1611 10.9676 9.84547
1 10.4072 10.1405 9.82882
1 11.9858 10.9512 10.6347
1 12.7795 10.1575 10.6347
1 12.7551 10.9391 9.83771
1 11.9684 10.1553 9.8449
1 13.5732 10.9512 10.6347
1 14.3669 10.1575 10.6347
1 14.3143 10.9567 9.812
1 13.581 10.1664 9.84802
1 15 9.36379 10.6347
1 15.7937 8.57009 10.6347
1 15.8149 9.35065 9.83341
1 15.0476 8.55829 9.83618
1 16.5874 9.36379 10.6347
1 17.3811 8.57009 10.6347
1 17.4228 9.35571 9.82055
1 16.6246 8.56325 9.83649
1 18.1748 9.36379 10.6347
1 18.9685 8.57009 10.6347
1 18.9787 9.36125 9.86236
1 18.2146 8.57239 9.81823
1 19.7622 9.36379 10.6347
1 20.5559 8.57009 10.6347
1 20.5532 9.3611 9.85341
1 19.7776 8.56287 9.82799
1 21.3496 9.36379 10.6347
1 22.1433 8.57009 10.6347
1 22.1652 9.36421 9.85836
1 21.3718 8.61969 9.85459
1 22.937 9.36379 10.6347
1 23.7307 8.57009 10.6347
1 23.7437 9.36986 9.82407
1 22.916 8.57797 9.83205
1 24.5244 9.36379 10.6347
1 25.3181 8.57009 10.6347
1 25.2979 9.34493 9.83045
1 24.5144 8.57413 9.8433
1 26.1118 9.36379 10.6347
1 26.9055 8.57009 10.6347
1 26.9136 9.36768 9.84757
1 26.1207 8.58853 9.85003
1 27.6992 9.36379 10.6347
1 28.4929 8.57009 10.6347
1 28.4849 9.37277 9.84562
1 27.6977 8.56121 9.84419
1 29.2866 9.36379 10.6347
1 0.08031 8.57009 10.6347
1 0.0772455 9.34533 9.8192
1 29.2959 8.55657 9.84844
1 0.874011 9.36379 10.6347
1 1.66771 8.57009 10.6347
1 1.65229 9.38608 9.83334
1 0.869861 8.58388 9.84468
1 2.46141 9.36379 10.6347
1 3.25511 8.57009 10.6347
1 3.24124 9.36516 9.83809
1 2.45793 8.60452 9.85883
1 4.04881 9.36379 10.6347
1 4.84251 8.57009 10.6347
1 4.83205 9.39656 9.82625
1 4.06069 8.57435 9.82602
1 5.63621 9.36379 10.6347
1 6.42991 8.57009 10.6347
1 6.41956 9.3505 9.82393
1 5.62336 8.58693 9.80632
1 7.22361 9.36379 10.6347
1 8.01732 8.57009 10.6347
1 8.03266 9.37462 9.84983
1 7.21087 8.56311 9.83398
1 8.81102 9.36379 10.6347
1 9.60472 8.57009 10.6347
1 9.61885 9.36784 9.8512
1 8.82481 8.56938 9.84557
1 10.3984 9.36379 10.6347
1 11.1921 8.57009 10.6347
1 11.1886 9.35708 9.84422
1 10.4023 8.57639 9.8411
1 11.9858 9.36379 10.6347
1 12.7795 8.57009 10.6347
1 12.7738 9.3581 9.84683
1 11.9627 8.54887 9.83878
1 13.5732 9.36379 10.6347
1 14.3669 8.57009 10.6347
1 14.3196 9.35838 9.80761
1 13.557 8.56309 9.85921
1 15 7.77639 10.6347
1 15.7937 6.98268 10.6347
1 15.7858 7.79056 9.84877
1 15.061 6.97927 9.78652
1 16.5874 7.77639 10.6347
1 17.3811 6.98268 10.6347
1 17.3966 7.76423 9.82201
1 16.5909 6.99626 9.82954
1 18.1748 7.77639 10.6347
1 18.9685 6.98268 10.6347
1 19.0107 7.78782 9.83712
1 18.1951 6.99474 9.85533
1 19.7622 7.77639 10.6347
1 20.5559 6.98268 10.6347
1 20.587 7.78212 9.83555
1 19.786 7.01834 9.85704
1 21.3496 7.77639 10.6347
1 22.1433 6.98268 10.6347
1 22.1289 7.80028 9.83244
1 21.3394 7.00935 9.82155
1 22.937 7.77639 10.6347
1 23.7307 6.98268 10.6347
1 23.7229 7.77195 9.82684
1 22.9214 6.95108 9.83912
1 24.5244 7.77639 10.6347
1 25.3181 6.98268 10.6347
1 25.3046 7.74582 9.83088
1 24.5343 6.97994 9.82848
1 26.1118 7.77639 10.6347
1 26.9055 6.98268 10.6347
1 26.9208 7.79568 9.83342
1 26.1246 6.97844 9.85722
1 27.6992 7.77639 10.6347
1 28.4929 6.98268 10.6347
1 28.5061 7.77526 9.8433
1 27.6976 6.98179 9.84213
1 29.2866 7.77639 10.6347
1 0.08031 6.98268 10.6347
1 0.0739666 7.78128 9.84569
1 29.2993 6.98083 9.85489
1 0.874011 7.77639 10.6347
1 1.66771 6.98268 10.6347
1 1.69799 7.80124 9.85462
1 0.878447 6.9843 9.81871
1 2.46141 7.77639 10.6347
1 3.25511 6.98268 10.6347
1 3.25657 7.79564 9.86204
1 2.47144 6.97859 9.82578
1 4.04881 7.77639 10.6347
1 4.84251 6.98268 10.6347
1 4.84083 7.78033 9.84244
1 4.04461 6.9771 9.81385
1 5.63621 7.77639 10.6347
1 6.42991 6.98268 10.6347
1 6.41019 7.76916 9.8169
1 5.63505 6.9789 9.83254
1 7.22361 7.77639 10.6347
1 8.01732 6.98268 10.6347
1 8.01878 7.78081 9.85068
1 7.24737 6.97683 9.83164
1 8.81102 7.77639 10.6347
1 9.60472 6.98268 10.6347
1 9.59126 7.78224 9.82319
1 8.80133 6.9803 9.84552
1 10.3984 7.77639 10.6347
1 11.1921 6.98268 10.6347
1 11.1736 7.78021 9.87459
1 10.3757 6.99906 9.86735
1 11.9858 7.77639 10.6347
1 12.7795 6.98268 10.6347
1 12.7819 7.78494 9.84296
1 11.9862 7.02113 9.83568
1 13.5732 7.77639 10.6347
1 14.3669 6.98268 10.6347
1 14.3 7.7725 9.82829
1 13.5536 6.97291 9.84299
1 15 6.18898 10.6347
1 15.7937 5.39528 10.6347
1 15.8243 6.1778 9.81963
1 15.0856 5.41742 9.80675
1 16.5874 6.18898 10.6347
1 17.3811 5.39528 10.6347
1 17.3905 6.20542 9.82808
1 16.6014 5.40521 9.83127
1 18.1748 6.18898 10.6347
1 18.9685 5.39528 10.6347
1 18.982 6.20688 9.85025
1 18.1876 5.39931 9.87876
1 19.7622 6.18898 10.6347
1 20.5559 5.39528 10.6347
1 20.5599 6.20018 9.86379
1 19.7828 5.40708 9.84112
1 21.3496 6.18898 10.6347
1 22.1433 5.39528 10.6347
1 22.1382 6.18186 9.84434
1 21.3366 5.41513 9.82737
1 22.937 6.18898 10.6347