9376
Atoms. Timestep: 4000000
1 3.75 3.55271e-15 10.6643
1 4.5437 29.2063 10.6643
1 4.59476 29.9303 9.82217
1 3.81252 29.2035 9.80312
1 5.3374 3.55271e-15 10.6643
1 6.1311 29.2063 10.6643
1 6.12647 29.9489 9.83768
1 5.35678 29.1608 9.868
1 6.9248 3.55271e-15 10.6643
1 7.7185 29.2063 10.6643
1 7.72632 29.927 9.82759
1 6.94642 29.1716 9.86657
1 8.5122 3.55271e-15 10.6643
1 9.3059 29.2063 10.6643
1 9.31699 29.9086 9.84777
1 8.51852 29.185 9.8602
1 10.0996 3.55271e-15 10.6643
1 10.8933 29.2063 10.6643
1 10.8817 29.9162 9.82601
1 10.0939 29.1643 9.89986
1 11.687 3.55271e-15 10.6643
1 12.4807 29.2063 10.6643
1 12.4838 29.9284 9.82675
1 11.6948 29.1924 9.8763
1 13.2744 3.55271e-15 10.6643
1 14.0681 29.2063 10.6643
1 14.0641 29.9308 9.82989
1 13.279 29.1659 9.86245
1 14.8618 3.55271e-15 10.6643
1 15.6555 29.2063 10.6643
1 15.632 29.9337 9.84208
1 14.8564 29.1877 9.87222
1 16.4492 3.55271e-15 10.6643
1 17.2429 29.2063 10.6643
1 17.2414 29.9398 9.82811
1 16.4577 29.2036 9.86685
1 18.0366 3.55271e-15 10.6643
1 18.8303 29.2063 10.6643
1 18.8224 29.9218 9.82189
1 18.0295 29.1534 9.85646
1 19.624 3.55271e-15 10.6643
1 20.4177 29.2063 10.6643
1 20.4198 29.9422 9.84033
1 19.6236 29.1768 9.85361
1 21.2114 3.55271e-15 10.6643
1 22.0051 29.2063 10.6643
1 21.999 29.9347 9.84167
1 21.1838 29.178 9.85309
1 22.7988 3.55271e-15 10.6643
1 23.5925 29.2063 10.6643
1 23.5879 29.93 9.82784
1 22.8091 29.1995 9.88151
1 24.3862 3.55271e-15 10.6643
1 25.1799 29.2063 10.6643
1 25.1794 29.9301 9.85222
1 24.38 29.1695 9.84912
1 25.9736 3.55271e-15 10.6643
1 26.7673 29.2063 10.6643
1 26.7795 29.9467 9.85233
1 25.9781 29.1922 9.87328
1 27.561 3.55271e-15 10.6643
1 28.3547 29.2063 10.6643
1 28.3645 29.9244 9.85468
1 27.5559 29.1497 9.86032
1 29.1484 3.55271e-15 10.6643
1 29.9421 29.2063 10.6643
1 29.9449 29.925 9.8429
1 29.139 29.1619 9.87159
1 0.735818 3.55271e-15 10.6643
1 1.52952 29.2063 10.6643
1 1.49585 29.9328 9.83666
1 0.706264 29.1419 9.86679
1 2.32322 3.55271e-15 10.6643
1 3.11692 29.2063 10.6643
1 3.04699 29.9429 9.81508
1 2.27382 29.1935 9.8784
1 3.75 28.4126 10.6643
1 4.5437 27.6189 10.6643
1 4.54527 28.3824 9.85873
1 3.80329 27.6344 9.83949
1 5.3374 28.4126 10.6643
1 6.1311 27.6189 10.6643
1 6.1388 28.4054 9.86336
1 5.35239 27.6312 9.87667
1 6.9248 28.4126 10.6643
1 7.7185 27.6189 10.6643
1 7.7321 28.3898 9.86911
1 6.91852 27.6352 9.8533
1 8.5122 28.4126 10.6643
1 9.3059 27.6189 10.6643
1 9.3178 28.3899 9.84983
1 8.53667 27.6125 9.85285
1 10.0996 28.4126 10.6643
1 10.8933 27.6189 10.6643
1 10.9083 28.4176 9.88133
1 10.1089 27.6105 9.86984
1 11.687 28.4126 10.6643
1 12.4807 27.6189 10.6643
1 12.475 28.3707 9.85815
1 11.6812 27.6091 9.85537
1 13.2744 28.4126 10.6643
1 14.0681 27.6189 10.6643
1 14.0687 28.3957 9.85718
1 13.2889 27.5793 9.89168
1 14.8618 28.4126 10.6643
1 15.6555 27.6189 10.6643
1 15.6493 28.4049 9.86734
1 14.8442 27.6193 9.87053
1 16.4492 28.4126 10.6643
1 17.2429 27.6189 10.6643
1 17.2358 28.3902 9.86296
1 16.4755 27.6042 9.88074
1 18.0366 28.4126 10.6643
1 18.8303 27.6189 10.6643
1 18.8376 28.374 9.87853
1 18.0353 27.6152 9.85376
1 19.624 28.4126 10.6643
1 20.4177 27.6189 10.6643
1 20.4066 28.379 9.90124
1 19.6321 27.6124 9.87888
1 21.2114 28.4126 10.6643
1 22.0051 27.6189 10.6643
1 21.9995 28.4134 9.87637
1 21.2013 27.6168 9.85539
1 22.7988 28.4126 10.6643
1 23.5925 27.6189 10.6643
1 23.5903 28.3837 9.87225
1 22.7718 27.5819 9.8603
1 24.3862 28.4126 10.6643
1 25.1799 27.6189 10.6643
1 25.1748 28.3938 9.86109
1 24.4149 27.6104 9.87438
1 25.9736 28.4126 10.6643
1 26.7673 27.6189 10.6643
1 26.7334 28.3883 9.8698
1 25.9593 27.606 9.85331
1 27.561 28.4126 10.6643
1 28.3547 27.6189 10.6643
1 28.3632 28.3817 9.89194
1 27.5712 27.6288 9.85328
1 29.1484 28.4126 10.6643
1 29.9421 27.6189 10.6643
1 29.9277 28.3796 9.84334
1 29.1289 27.5919 9.89541
1 0.735818 28.4126 10.6643
1 1.52952 27.6189 10.6643
1 1.51595 28.4023 9.88298
1 0.726949 27.6154 9.84292
1 2.32322 28.4126 10.6643
1 3.11692 27.6189 10.6643
1 3.01806 28.4222 9.83437
1 2.29779 27.6415 9.88159
1 3.75 26.8252 10.6643
1 4.5437 26.0315 10.6643
1 4.56357 26.8194 9.86532
1 3.82949 26.0049 9.82516
1 5.3374 26.8252 10.6643
1 6.1311 26.0315 10.6643
1 6.13105 26.8238 9.85432
1 5.3348 26.0342 9.8603
1 6.9248 26.8252 10.6643
1 7.7185 26.0315 10.6643
1 7.75017 26.8388 9.89373
1 6.92109 26.0223 9.8787
1 8.5122 26.8252 10.6643
1 9.3059 26.0315 10.6643
1 9.32263 26.8163 9.87337
1 8.516 26.0379 9.86318
1 10.0996 26.8252 10.6643
1 10.8933 26.0315 10.6643
1 10.8998 26.831 9.85561
1 10.0817 26.0132 9.85916
1 11.687 26.8252 10.6643
1 12.4807 26.0315 10.6643
1 12.4883 26.8114 9.88413
1 11.6895 26.0348 9.87524
1 13.2744 26.8252 10.6643
1 14.0681 26.0315 10.6643
1 14.0692 26.8303 9.87072
1 13.266 26.0345 9.89448
1 14.8618 26.8252 10.6643
1 15.6555 26.0315 10.6643
1 15.6512 26.8521 9.88702
1 14.8447 26.0565 9.84783
1 16.4492 26.8252 10.6643
1 17.2429 26.0315 10.6643
1 17.2547 26.7987 9.88823
1 16.4385 26.0618 9.8839
1 18.0366 26.8252 10.6643
1 18.8303 26.0315 10.6643
1 18.8535 26.8019 9.89079
1 18.0276 26.0223 9.87124
1 19.624 26.8252 10.6643
1 20.4177 26.0315 10.6643
1 20.4197 26.8171 9.85637
1 19.6349 26.0468 9.87354
1 21.2114 26.8252 10.6643
1 22.0051 26.0315 10.6643
1 22.0047 26.8054 9.86791
1 21.2145 26.0278 9.85531
1 22.7988 26.8252 10.6643
1 23.5925 26.0315 10.6643
1 23.5919 26.814 9.86125
1 22.8324 26.0547 9.85464
1 24.3862 26.8252 10.6643
1 25.1799 26.0315 10.6643
1 25.1768 26.8013 9.84954
1 24.3746 26.0169 9.8797
1 25.9736 26.8252 10.6643
1 26.7673 26.0315 10.6643
1 26.7648 26.8388 9.88158
1 25.9925 26.0112 9.86838
1 27.561 26.8252 10.6643
1 28.3547 26.0315 10.6643
1 28.336 26.831 9.85609
1 27.5483 26.0344 9.86756
1 29.1484 26.8252 10.6643
1 29.9421 26.0315 10.6643
1 29.9312 26.8203 9.87206
1 29.1305 26.042 9.85882
1 0.735818 26.8252 10.6643
1 1.52952 26.0315 10.6643
1 1.52661 26.8083 9.8607
1 0.718891 26.0208 9.88823
1 2.32322 26.8252 10.6643
1 3.11692 26.0315 10.6643
1 3.06218 26.7891 9.81807
1 2.2876 26.0138 9.85402
1 3.75 25.2378 10.6643
1 4.5437 24.4441 10.6643
1 4.57961 25.2117 9.87366
1 3.82097 24.45 9.85327
1 5.3374 25.2378 10.6643
1 6.1311 24.4441 10.6643
1 6.13091 25.2446 9.88044
1 5.38265 24.423 9.87644
1 6.9248 25.2378 10.6643
1 7.7185 24.4441 10.6643
1 7.7373 25.2422 9.86267
1 6.94831 24.4487 9.86636
1 8.5122 25.2378 10.6643
1 9.3059 24.4441 10.6643
1 9.29864 25.2307 9.85862
1 8.51856 24.4614 9.87156
1 10.0996 25.2378 10.6643
1 10.8933 24.4441 10.6643
1 10.883 25.2532 9.86265
1 10.102 24.4606 9.85738
1 11.687 25.2378 10.6643
1 12.4807 24.4441 10.6643
1 12.4964 25.2469 9.88065
1 11.6968 24.439 9.88996
1 13.2744 25.2378 10.6643
1 14.0681 24.4441 10.6643
1 14.0715 25.2463 9.87029
1 13.2704 24.4571 9.8578
1 14.8618 25.2378 10.6643
1 15.6555 24.4441 10.6643
1 15.6263 25.254 9.86762
1 14.8712 24.4488 9.86432
1 16.4492 25.2378 10.6643
1 17.2429 24.4441 10.6643
1 17.2599 25.2374 9.86775
1 16.4531 24.4442 9.88111
1 18.0366 25.2378 10.6643
1 18.8303 24.4441 10.6643
1 18.8475 25.2556 9.85338
1 18.0343 24.4409 9.87134
1 19.624 25.2378 10.6643
1 20.4177 24.4441 10.6643
1 20.4097 25.1975 9.86924
1 19.6408 24.4401 9.87841
1 21.2114 25.2378 10.6643
1 22.0051 24.4441 10.6643
1 22.0064 25.2314 9.86368
1 21.2088 24.4606 9.8709
1 22.7988 25.2378 10.6643
1 23.5925 24.4441 10.6643
1 23.6146 25.2388 9.86589
1 22.8126 24.4483 9.89672
1 24.3862 25.2378 10.6643
1 25.1799 24.4441 10.6643
1 25.1838 25.219 9.87276
1 24.3697 24.4533 9.86141
1 25.9736 25.2378 10.6643
1 26.7673 24.4441 10.6643
1 26.7651 25.2425 9.88554
1 25.9594 24.4444 9.89095
1 27.561 25.2378 10.6643
1 28.3547 24.4441 10.6643
1 28.3648 25.2106 9.85402
1 27.559 24.4585 9.86999
1 29.1484 25.2378 10.6643
1 29.9421 24.4441 10.6643
1 29.9292 25.2158 9.86724
1 29.1512 24.4458 9.84006
1 0.735818 25.2378 10.6643
1 1.52952 24.4441 10.6643
1 1.51654 25.2406 9.86039
1 0.746449 24.4594 9.85272
1 2.32322 25.2378 10.6643
1 3.11692 24.4441 10.6643
1 3.07689 25.2174 9.83211
1 2.28216 24.4258 9.86327
1 3.75 23.6504 10.6643
1 4.5437 22.8567 10.6643
1 4.57198 23.6362 9.86162
1 3.82847 22.8337 9.82913
1 5.3374 23.6504 10.6643
1 6.1311 22.8567 10.6643
1 6.16672 23.6526 9.8696
1 5.38046 22.8614 9.86007
1 6.9248 23.6504 10.6643
1 7.7185 22.8567 10.6643
1 7.71558 23.6853 9.86262
1 6.94572 22.871 9.89764
1 8.5122 23.6504 10.6643
1 9.3059 22.8567 10.6643
1 9.31512 23.6555 9.89352
1 8.50032 22.8704 9.87873
1 10.0996 23.6504 10.6643
1 10.8933 22.8567 10.6643
1 10.8795 23.6701 9.84822
1 10.1006 22.8782 9.8803
1 11.687 23.6504 10.6643
1 12.4807 22.8567 10.6643
1 12.4644 23.6367 9.87265
1 11.6737 22.8572 9.85364
1 13.2744 23.6504 10.6643
1 14.0681 22.8567 10.6643
1 14.0676 23.6415 9.87456
1 13.254 22.8738 9.86141
1 14.8618 23.6504 10.6643
1 15.6555 22.8567 10.6643
1 15.6731 23.6504 9.87904
1 14.8782 22.8653 9.84742
1 16.4492 23.6504 10.6643
1 17.2429 22.8567 10.6643
1 17.244 23.6211 9.86718
1 16.4635 22.8249 9.8822
1 18.0366 23.6504 10.6643
1 18.8303 22.8567 10.6643
1 18.8424 23.6273 9.86703
1 18.0509 22.8745 9.90506
1 19.624 23.6504 10.6643
1 20.4177 22.8567 10.6643
1 20.4324 23.6423 9.88472
1 19.6472 22.8174 9.87787
1 21.2114 23.6504 10.6643
1 22.0051 22.8567 10.6643
1 22.0129 23.6313 9.89092
1 21.2034 22.8817 9.8687
1 22.7988 23.6504 10.6643
1 23.5925 22.8567 10.6643
1 23.589 23.6363 9.87093
1 22.8046 22.8672 9.86682
1 24.3862 23.6504 10.6643
1 25.1799 22.8567 10.6643
1 25.1942 23.6458 9.88396
1 24.3914 22.8528 9.88771
1 25.9736 23.6504 10.6643
1 26.7673 22.8567 10.6643
1 26.7866 23.6543 9.88582
1 25.9946 22.8794 9.86647
1 27.561 23.6504 10.6643
1 28.3547 22.8567 10.6643
1 28.3343 23.6519 9.91351
1 27.5562 22.8635 9.8733
1 29.1484 23.6504 10.6643
1 29.9421 22.8567 10.6643
1 29.9297 23.6559 9.89754
1 29.1346 22.8991 9.88163
1 0.735818 23.6504 10.6643
1 1.52952 22.8567 10.6643
1 1.49462 23.6251 9.85966
1 0.72941 22.8645 9.87525
1 2.32322 23.6504 10.6643
1 3.11692 22.8567 10.6643
1 3.04907 23.6293 9.84389
1 2.27135 22.8485 9.88552
1 3.75 22.063 10.6643
1 4.5437 21.2693 10.6643
1 4.58084 22.0795 9.85575
1 3.82303 21.3021 9.84167
1 5.3374 22.063 10.6643
1 6.1311 21.2693 10.6643
1 6.16347 22.0428 9.87242
1 5.35888 21.2569 9.86143
1 6.9248 22.063 10.6643
1 7.7185 21.2693 10.6643
1 7.72813 22.0397 9.88218
1 6.91769 21.2381 9.84442
1 8.5122 22.063 10.6643
1 9.3059 21.2693 10.6643
1 9.31841 22.0963 9.8733
1 8.49834 21.2691 9.87316
1 10.0996 22.063 10.6643
1 10.8933 21.2693 10.6643
1 10.8938 22.0484 9.87036
1 10.0836 21.2691 9.87085
1 11.687 22.063 10.6643
1 12.4807 21.2693 10.6643
1 12.4811 22.0613 9.87246
1 11.6882 21.278 9.85473
1 13.2744 22.063 10.6643
1 14.0681 21.2693 10.6643
1 14.0468 22.0617 9.84855
1 13.2836 21.2677 9.88377
1 14.8618 22.063 10.6643
1 15.6555 21.2693 10.6643
1 15.6564 22.0574 9.87945
1 14.8548 21.2664 9.84889
1 16.4492 22.063 10.6643
1 17.2429 21.2693 10.6643
1 17.2629 22.0695 9.87919
1 16.4673 21.2532 9.85689
1 18.0366 22.063 10.6643
1 18.8303 21.2693 10.6643
1 18.8538 22.0555 9.89629
1 18.0278 21.2604 9.87141
1 19.624 22.063 10.6643
1 20.4177 21.2693 10.6643
1 20.402 22.0555 9.86907
1 19.6296 21.2591 9.87203
1 21.2114 22.063 10.6643
1 22.0051 21.2693 10.6643
1 22.0084 22.0954 9.88027
1 21.2128 21.2924 9.8747
1 22.7988 22.063 10.6643
1 23.5925 21.2693 10.6643
1 23.5977 22.0481 9.87499
1 22.7971 21.2683 9.87607
1 24.3862 22.063 10.6643
1 25.1799 21.2693 10.6643
1 25.1959 22.0497 9.83813
1 24.3886 21.2929 9.85126
1 25.9736 22.063 10.6643
1 26.7673 21.2693 10.6643
1 26.7439 22.051 9.86375
1 25.964 21.2644 9.91166
1 27.561 22.063 10.6643
1 28.3547 21.2693 10.6643
1 28.3504 22.0725 9.84138
1 27.5567 21.2671 9.86926
1 29.1484 22.063 10.6643
1 29.9421 21.2693 10.6643
1 29.9317 22.0699 9.87322
1 29.1326 21.287 9.89512
1 0.735818 22.063 10.6643
1 1.52952 21.2693 10.6643
1 1.47787 22.0901 9.87696
1 0.712771 21.2543 9.86604
1 2.32322 22.063 10.6643
1 3.11692 21.2693 10.6643
1 3.02371 22.058 9.86882
1 2.30343 21.2943 9.85881
1 3.75 20.4756 10.6643
1 4.5437 19.6819 10.6643
1 4.55863 20.4705 9.88005
1 3.8129 19.6568 9.81397
1 5.3374 20.4756 10.6643
1 6.1311 19.6819 10.6643
1 6.11591 20.477 9.87497
1 5.36473 19.6965 9.86441
1 6.9248 20.4756 10.6643
1 7.7185 19.6819 10.6643
1 7.72207 20.4614 9.88225
1 6.8905 19.6834 9.85873
1 8.5122 20.4756 10.6643
1 9.3059 19.6819 10.6643
1 9.29669 20.4859 9.87801
1 8.52263 19.6913 9.86394
1 10.0996 20.4756 10.6643
1 10.8933 19.6819 10.6643
1 10.8862 20.4834 9.86252
1 10.0905 19.7259 9.87358
1 11.687 20.4756 10.6643
1 12.4807 19.6819 10.6643
1 12.4796 20.4763 9.87524
1 11.6767 19.6865 9.85912
1 13.2744 20.4756 10.6643
1 14.0681 19.6819 10.6643
1 14.0772 20.4993 9.87382
1 13.2572 19.6924 9.885
1 14.8618 20.4756 10.6643
1 15.6555 19.6819 10.6643
1 15.6626 20.4913 9.87851
1 14.8574 19.7116 9.86979
1 16.4492 20.4756 10.6643
1 17.2429 19.6819 10.6643
1 17.2653 20.4693 9.85098
1 16.4675 19.6816 9.86939
1 18.0366 20.4756 10.6643
1 18.8303 19.6819 10.6643
1 18.8466 20.4718 9.88485
1 18.0428 19.6761 9.87191
1 19.624 20.4756 10.6643
1 20.4177 19.6819 10.6643
1 20.4311 20.4732 9.87052
1 19.6538 19.6758 9.87122
1 21.2114 20.4756 10.6643
1 22.0051 19.6819 10.6643
1 22.0093 20.4508 9.86857
1 21.1992 19.674 9.84718
1 22.7988 20.4756 10.6643
1 23.5925 19.6819 10.6643
1 23.5928 20.4844 9.86253
1 22.7936 19.6893 9.87293
1 24.3862 20.4756 10.6643
1 25.1799 19.6819 10.6643
1 25.1882 20.4762 9.88393
1 24.3927 19.6811 9.90966
1 25.9736 20.4756 10.6643
1 26.7673 19.6819 10.6643
1 26.7654 20.4668 9.89805
1 25.9825 19.6842 9.86189
1 27.561 20.4756 10.6643
1 28.3547 19.6819 10.6643
1 28.3446 20.4566 9.87827
1 27.5434 19.6808 9.9024
1 29.1484 20.4756 10.6643
1 29.9421 19.6819 10.6643
1 29.9159 20.4755 9.87308
1 29.1681 19.6761 9.88112
1 0.735818 20.4756 10.6643
1 1.52952 19.6819 10.6643
1 1.53802 20.4875 9.87782
1 0.72142 19.6877 9.89277
1 2.32322 20.4756 10.6643
1 3.11692 19.6819 10.6643
1 3.06348 20.4824 9.82712
1 2.3267 19.6728 9.85769
1 3.75 18.8882 10.6643
1 4.5437 18.0945 10.6643
1 4.60328 18.9063 9.8704
1 3.7918 18.1241 9.83638
1 5.3374 18.8882 10.6643
1 6.1311 18.0945 10.6643
1 6.12244 18.8799 9.86006
1 5.3713 18.0622 9.86651
1 6.9248 18.8882 10.6643
1 7.7185 18.0945 10.6643
1 7.7364 18.9027 9.86919
1 6.93987 18.1336 9.87824
1 8.5122 18.8882 10.6643
1 9.3059 18.0945 10.6643
1 9.32431 18.8988 9.85792
1 8.50776 18.119 9.88327
1 10.0996 18.8882 10.6643
1 10.8933 18.0945 10.6643
1 10.8869 18.8883 9.8677
1 10.0949 18.0946 9.88747
1 11.687 18.8882 10.6643
1 12.4807 18.0945 10.6643
1 12.4772 18.8886 9.87944
1 11.6851 18.1121 9.8675
1 13.2744 18.8882 10.6643
1 14.0681 18.0945 10.6643
1 14.0759 18.8937 9.87625
1 13.2469 18.0865 9.87898
1 14.8618 18.8882 10.6643
1 15.6555 18.0945 10.6643
1 15.6632 18.8953 9.88321
1 14.8552 18.093 9.88919
1 16.4492 18.8882 10.6643
1 17.2429 18.0945 10.6643
1 17.2445 18.8611 9.87862
1 16.4336 18.0841 9.88142
1 18.0366 18.8882 10.6643
1 18.8303 18.0945 10.6643
1 18.8141 18.8872 9.86426
1 18.0315 18.0809 9.84401
1 19.624 18.8882 10.6643
1 20.4177 18.0945 10.6643
1 20.4148 18.8685 9.83927
1 19.6399 18.0965 9.85943
1 21.2114 18.8882 10.6643
1 22.0051 18.0945 10.6643
1 21.9859 18.8791 9.8886
1 21.1888 18.0792 9.85628
1 22.7988 18.8882 10.6643
1 23.5925 18.0945 10.6643
1 23.5792 18.9029 9.89566
1 22.8042 18.1074 9.86648
1 24.3862 18.8882 10.6643
1 25.1799 18.0945 10.6643
1 25.1933 18.893 9.85031
1 24.3879 18.094 9.85204
1 25.9736 18.8882 10.6643
1 26.7673 18.0945 10.6643
1 26.7756 18.8767 9.92143
1 25.976 18.108 9.86774
1 27.561 18.8882 10.6643
1 28.3547 18.0945 10.6643
1 28.3362 18.8846 9.89223
1 27.5588 18.0833 9.88594
1 29.1484 18.8882 10.6643
1 29.9421 18.0945 10.6643
1 29.9385 18.87 9.86968
1 29.1538 18.0804 9.87574
1 0.735818 18.8882 10.6643
1 1.52952 18.0945 10.6643
1 1.51721 18.8935 9.86266
1 0.728349 18.1029 9.84179
1 2.32322 18.8882 10.6643
1 3.11692 18.0945 10.6643
1 3.04747 18.8793 9.83432
1 2.29801 18.0664 9.84269
1 3.75 17.3008 10.6643
1 4.5437 16.5071 10.6643
1 4.59747 17.3046 9.88046
1 3.81612 16.5119 9.82157
1 5.3374 17.3008 10.6643
1 6.1311 16.5071 10.6643
1 6.14274 17.3128 9.89696
1 5.35548 16.4981 9.86677
1 6.9248 17.3008 10.6643
1 7.7185 16.5071 10.6643
1 7.71677 17.3022 9.87217
1 6.95289 16.5201 9.88523
1 8.5122 17.3008 10.6643
1 9.3059 16.5071 10.6643
1 9.31224 17.2927 9.88867
1 8.51496 16.5124 9.87634
1 10.0996 17.3008 10.6643
1 10.8933 16.5071 10.6643
1 10.852 17.3071 9.85676
1 10.091 16.5025 9.88987
1 11.687 17.3008 10.6643
1 12.4807 16.5071 10.6643
1 12.4668 17.2922 9.85869
1 11.6611 16.5005 9.87689
1 13.2744 17.3008 10.6643
1 14.0681 16.5071 10.6643
1 14.067 17.2601 9.87918
1 13.2584 16.4884 9.86604
1 14.8618 17.3008 10.6643
1 15.6555 16.5071 10.6643
1 15.6801 17.3046 9.88181
1 14.8902 16.5031 9.86754
1 16.4492 17.3008 10.6643
1 17.2429 16.5071 10.6643
1 17.2106 17.293 9.88587
1 16.4355 16.5128 9.88794
1 18.0366 17.3008 10.6643
1 18.8303 16.5071 10.6643
1 18.8274 17.2943 9.90076
1 18.0244 16.5222 9.85736
1 19.624 17.3008 10.6643
1 20.4177 16.5071 10.6643
1 20.4048 17.2975 9.86963
1 19.6141 16.4797 9.86083
1 21.2114 17.3008 10.6643
1 22.0051 16.5071 10.6643
1 21.9968 17.2972 9.87091
1 21.2371 16.5181 9.86573
1 22.7988 17.3008 10.6643
1 23.5925 16.5071 10.6643
1 23.6027 17.2948 9.86277
1 22.7983 16.5107 9.89556
1 24.3862 17.3008 10.6643
1 25.1799 16.5071 10.6643
1 25.2082 17.3094 9.89242
1 24.3988 16.4975 9.87064
1 25.9736 17.3008 10.6643
1 26.7673 16.5071 10.6643
1 26.7658 17.3172 9.86149
1 25.9695 16.5036 9.8527
1 27.561 17.3008 10.6643
1 28.3547 16.5071 10.6643
1 28.336 17.2959 9.88458
1 27.544 16.5221 9.87713
1 29.1484 17.3008 10.6643
1 29.9421 16.5071 10.6643
1 29.9237 17.3135 9.85327
1 29.1252 16.4781 9.85627
1 0.735818 17.3008 10.6643
1 1.52952 16.5071 10.6643
1 1.48002 17.2774 9.86472
1 0.699454 16.4911 9.87128
1 2.32322 17.3008 10.6643
1 3.11692 16.5071 10.6643
1 3.06669 17.3126 9.85458
1 2.28757 16.5222 9.86678
1 3.75 15.7134 10.6643
1 4.5437 14.9197 10.6643
1 4.59314 15.7289 9.87464
1 3.82408 14.949 9.84674
1 5.3374 15.7134 10.6643
1 6.1311 14.9197 10.6643
1 6.16675 15.7161 9.87375
1 5.36284 14.9333 9.87676
1 6.9248 15.7134 10.6643
1 7.7185 14.9197 10.6643
1 7.72049 15.6864 9.86246
1 6.93429 14.9221 9.87307
1 8.5122 15.7134 10.6643
1 9.3059 14.9197 10.6643
1 9.30767 15.6924 9.88537
1 8.498 14.9122 9.88329
1 10.0996 15.7134 10.6643
1 10.8933 14.9197 10.6643
1 10.8919 15.7212 9.88238
1 10.0851 14.8872 9.882
1 11.687 15.7134 10.6643
1 12.4807 14.9197 10.6643
1 12.4711 15.7043 9.87769
1 11.6789 14.9221 9.88741
1 13.2744 15.7134 10.6643
1 14.0681 14.9197 10.6643
1 14.0816 15.7014 9.87483
1 13.2695 14.9177 9.87253
1 14.8618 15.7134 10.6643
1 15.6555 14.9197 10.6643
1 15.6561 15.6903 9.86535
1 14.8795 14.9101 9.87658
1 16.4492 15.7134 10.6643
1 17.2429 14.9197 10.6643
1 17.2513 15.7171 9.87487
1 16.4691 14.9332 9.86814
1 18.0366 15.7134 10.6643
1 18.8303 14.9197 10.6643
1 18.8022 15.7217 9.85539
1 18.0378 14.9498 9.88714
1 19.624 15.7134 10.6643
1 20.4177 14.9197 10.6643
1 20.4134 15.7198 9.86566
1 19.5939 14.935 9.87649
1 21.2114 15.7134 10.6643
1 22.0051 14.9197 10.6643
1 22.0019 15.7192 9.88796
1 21.2002 14.9298 9.89877
1 22.7988 15.7134 10.6643
1 23.5925 14.9197 10.6643
1 23.6086 15.7046 9.88037
1 22.8018 14.9112 9.88859
1 24.3862 15.7134 10.6643
1 25.1799 14.9197 10.6643
1 25.1715 15.7272 9.8543
1 24.3793 14.9146 9.88297
1 25.9736 15.7134 10.6643
1 26.7673 14.9197 10.6643
1 26.7768 15.7267 9.86349
1 25.9621 14.9015 9.87449
1 27.561 15.7134 10.6643
1 28.3547 14.9197 10.6643
1 28.3405 15.7048 9.88061
1 27.5602 14.9279 9.88142
1 29.1484 15.7134 10.6643
1 29.9421 14.9197 10.6643
1 29.9344 15.7128 9.88558
1 29.1328 14.9164 9.90255
1 0.735818 15.7134 10.6643
1 1.52952 14.9197 10.6643
1 1.50612 15.7057 9.87033
1 0.719692 14.8858 9.87886
1 2.32322 15.7134 10.6643
1 3.11692 14.9197 10.6643
1 3.04127 15.7287 9.86122
1 2.29471 14.9021 9.87835
1 3.75 14.126 10.6643
1 4.5437 13.3323 10.6643
1 4.55851 14.1452 9.84755
1 3.83695 13.3421 9.82589
1 5.3374 14.126 10.6643
1 6.1311 13.3323 10.6643
1 6.14252 14.1243 9.89293
1 5.3722 13.349 9.87926
1 6.9248 14.126 10.6643
1 7.7185 13.3323 10.6643
1 7.7222 14.1351 9.85768
1 6.94725 13.3242 9.88427
1 8.5122 14.126 10.6643
1 9.3059 13.3323 10.6643
1 9.3073 14.1363 9.89453
1 8.507 13.3523 9.87118
1 10.0996 14.126 10.6643
1 10.8933 13.3323 10.6643
1 10.8779 14.142 9.88314
1 10.1059 13.3536 9.86977
1 11.687 14.126 10.6643
1 12.4807 13.3323 10.6643
1 12.4713 14.1184 9.85629
1 11.6576 13.3424 9.86926
1 13.2744 14.126 10.6643
1 14.0681 13.3323 10.6643
1 14.0723 14.1357 9.86284
1 13.2765 13.3184 9.85997
1 14.8618 14.126 10.6643
1 15.6555 13.3323 10.6643
1 15.6898 14.1096 9.87282
1 14.853 13.3192 9.85513
1 16.4492 14.126 10.6643
1 17.2429 13.3323 10.6643
1 17.2572 14.1479 9.87452
1 16.4485 13.3166 9.86511
1 18.0366 14.126 10.6643
1 18.8303 13.3323 10.6643
1 18.8381 14.1211 9.8714
1 18.0351 13.3232 9.85667
1 19.624 14.126 10.6643
1 20.4177 13.3323 10.6643
1 20.4195 14.1193 9.87831
1 19.6148 13.3557 9.86073
1 21.2114 14.126 10.6643
1 22.0051 13.3323 10.6643
1 22.0345 14.1304 9.86152
1 21.221 13.333 9.86314
1 22.7988 14.126 10.6643
1 23.5925 13.3323 10.6643
1 23.5932 14.1148 9.85357
1 22.7671 13.3469 9.86057
1 24.3862 14.126 10.6643
1 25.1799 13.3323 10.6643
1 25.1725 14.1003 9.86253
1 24.3807 13.3312 9.89108
1 25.9736 14.126 10.6643
1 26.7673 13.3323 10.6643
1 26.7537 14.1346 9.87609
1 25.9703 13.3346 9.87072
1 27.561 14.126 10.6643
1 28.3547 13.3323 10.6643
1 28.3348 14.1212 9.86048
1 27.5391 13.3417 9.84596
1 29.1484 14.126 10.6643
1 29.9421 13.3323 10.6643
1 29.9157 14.1251 9.86846
1 29.1274 13.3471 9.85843
1 0.735818 14.126 10.6643
1 1.52952 13.3323 10.6643
1 1.52755 14.1367 9.85102
1 0.729976 13.3466 9.86198
1 2.32322 14.126 10.6643
1 3.11692 13.3323 10.6643
1 3.07627 14.1293 9.8211
1 2.30623 13.3534 9.87489
1 3.75 12.5386 10.6643
1 4.5437 11.7449 10.6643
1 4.55324 12.5498 9.84979
1 3.81234 11.7224 9.83923
1 5.3374 12.5386 10.6643
1 6.1311 11.7449 10.6643
1 6.11256 12.5364 9.85896
1 5.34631 11.7474 9.87287
1 6.9248 12.5386 10.6643
1 7.7185 11.7449 10.6643
1 7.71883 12.5403 9.84671
1 6.90963 11.7543 9.87983
1 8.5122 12.5386 10.6643
1 9.3059 11.7449 10.6643
1 9.30155 12.5572 9.86534
1 8.49002 11.7675 9.88238
1 10.0996 12.5386 10.6643
1 10.8933 11.7449 10.6643
1 10.9017 12.5425 9.878
1 10.0952 11.7629 9.87683
1 11.687 12.5386 10.6643
1 12.4807 11.7449 10.6643
1 12.4749 12.5369 9.85292
1 11.6774 11.7424 9.86034
1 13.2744 12.5386 10.6643
1 14.0681 11.7449 10.6643
1 14.0528 12.5306 9.87233
1 13.2731 11.7499 9.89027
1 14.8618 12.5386 10.6643
1 15.6555 11.7449 10.6643
1 15.6678 12.5404 9.86074
1 14.8721 11.7472 9.87023
1 16.4492 12.5386 10.6643
1 17.2429 11.7449 10.6643
1 17.247 12.5481 9.88995
1 16.4834 11.7397 9.8657
1 18.0366 12.5386 10.6643
1 18.8303 11.7449 10.6643
1 18.8284 12.5549 9.86948
1 18.0313 11.7499 9.87499
1 19.624 12.5386 10.6643
1 20.4177 11.7449 10.6643
1 20.424 12.5474 9.86082
1 19.6134 11.7393 9.88029
1 21.2114 12.5386 10.6643
1 22.0051 11.7449 10.6643
1 22.0027 12.5474 9.87185
1 21.2397 11.7491 9.85903
1 22.7988 12.5386 10.6643
1 23.5925 11.7449 10.6643
1 23.5712 12.5447 9.88058
1 22.802 11.7421 9.89156
1 24.3862 12.5386 10.6643
1 25.1799 11.7449 10.6643
1 25.178 12.5468 9.87276
1 24.3576 11.7389 9.88371
1 25.9736 12.5386 10.6643
1 26.7673 11.7449 10.6643
1 26.7583 12.5459 9.87545
1 25.9542 11.7256 9.86487
1 27.561 12.5386 10.6643
1 28.3547 11.7449 10.6643
1 28.3254 12.5302 9.86699
1 27.5369 11.7336 9.86687
1 29.1484 12.5386 10.6643
1 29.9421 11.7449 10.6643
1 29.9401 12.5196 9.88324
1 29.1439 11.7464 9.87336
1 0.735818 12.5386 10.6643
1 1.52952 11.7449 10.6643
1 1.50161 12.5675 9.86299
1 0.702576 11.7365 9.85079
1 2.32322 12.5386 10.6643
1 3.11692 11.7449 10.6643
1 3.06268 12.5489 9.83527
1 2.28606 11.7354 9.88098
1 3.75 10.9512 10.6643
1 4.5437 10.1575 10.6643
1 4.56099 10.9256 9.85011
1 3.81055 10.1827 9.80818
1 5.3374 10.9512 10.6643
1 6.1311 10.1575 10.6643
1 6.14681 10.969 9.86143
1 5.36404 10.1594 9.8627
1 6.9248 10.9512 10.6643
1 7.7185 10.1575 10.6643
1 7.74123 10.9222 9.89082
1 6.92355 10.145 9.85686
1 8.5122 10.9512 10.6643
1 9.3059 10.1575 10.6643
1 9.30735 10.9521 9.87192
1 8.52257 10.1431 9.86747
1 10.0996 10.9512 10.6643
1 10.8933 10.1575 10.6643
1 10.8887 10.9393 9.88242
1 10.113 10.1643 9.85759
1 11.687 10.9512 10.6643
1 12.4807 10.1575 10.6643
1 12.4794 10.9575 9.87701
1 11.6924 10.1625 9.85835
1 13.2744 10.9512 10.6643
1 14.0681 10.1575 10.6643
1 14.0687 10.934 9.86709
1 13.2737 10.1281 9.87224
1 14.8618 10.9512 10.6643
1 15.6555 10.1575 10.6643
1 15.6643 10.9457 9.84449
1 14.8728 10.1522 9.8763
1 16.4492 10.9512 10.6643
1 17.2429 10.1575 10.6643
1 17.2579 10.9501 9.88367
1 16.4362 10.168 9.86478
1 18.0366 10.9512 10.6643
1 18.8303 10.1575 10.6643
1 18.8541 10.9413 9.88477
1 18.0154 10.1294 9.87849
1 19.624 10.9512 10.6643
1 20.4177 10.1575 10.6643
1 20.4014 10.9546 9.86864
1 19.641 10.1481 9.84753
1 21.2114 10.9512 10.6643
1 22.0051 10.1575 10.6643
1 21.9924 10.9468 9.87371
1 21.1944 10.1584 9.87438
1 22.7988 10.9512 10.6643
1 23.5925 10.1575 10.6643
1 23.5762 10.9495 9.8593
1 22.7877 10.1513 9.84771
1 24.3862 10.9512 10.6643
1 25.1799 10.1575 10.6643
1 25.1667 10.9182 9.89199
1 24.3732 10.1431 9.87672
1 25.9736 10.9512 10.6643
1 26.7673 10.1575 10.6643
1 26.7471 10.9292 9.83838
1 25.9793 10.1563 9.85939
1 27.561 10.9512 10.6643
1 28.3547 10.1575 10.6643
1 28.348 10.9529 9.87457
1 27.5702 10.1625 9.8631
1 29.1484 10.9512 10.6643
1 29.9421 10.1575 10.6643
1 29.9225 10.9571 9.88437
1 29.1501 10.173 9.87715
1 0.735818 10.9512 10.6643
1 1.52952 10.1575 10.6643
1 1.51142 10.9463 9.85035
1 0.714771 10.1723 9.90457
1 2.32322 10.9512 10.6643
1 3.11692 10.1575 10.6643
1 3.03354 10.9466 9.85214
1 2.29098 10.1696 9.85236
1 3.75 9.36379 10.6643
1 4.5437 8.57009 10.6643
1 4.57987 9.36836 9.89507
1 3.79255 8.5906 9.83413
1 5.3374 9.36379 10.6643
1 6.1311 8.57009 10.6643
1 6.16016 9.36559 9.87724
1 5.37585 8.58796 9.86925
1 6.9248 9.36379 10.6643
1 7.7185 8.57009 10.6643
1 7.72618 9.364 9.86782
1 6.92397 8.57286 9.88435
1 8.5122 9.36379 10.6643
1 9.3059 8.57009 10.6643
1 9.29794 9.35652 9.87559
1 8.50559 8.59957 9.86358
1 10.0996 9.36379 10.6643
1 10.8933 8.57009 10.6643
1 10.8911 9.33247 9.86838
1 10.093 8.55878 9.89229
1 11.687 9.36379 10.6643
1 12.4807 8.57009 10.6643
1 12.4727 9.36834 9.8793
1 11.6853 8.56353 9.87463
1 13.2744 9.36379 10.6643
1 14.0681 8.57009 10.6643
1 14.0793 9.36018 9.86701
1 13.2686 8.57515 9.86582
1 14.8618 9.36379 10.6643
1 15.6555 8.57009 10.6643
1 15.6609 9.38794 9.88688
1 14.8637 8.56978 9.89657
1 16.4492 9.36379 10.6643
1 17.2429 8.57009 10.6643
1 17.2301 9.34663 9.87699
1 16.4603 8.56164 9.87704
1 18.0366 9.36379 10.6643
1 18.8303 8.57009 10.6643
1 18.8154 9.38218 9.89457
1 18.0368 8.53273 9.85145
1 19.624 9.36379 10.6643
1 20.4177 8.57009 10.6643
1 20.4037 9.37767 9.85854
1 19.6029 8.56903 9.88697
1 21.2114 9.36379 10.6643
1 22.0051 8.57009 10.6643
1 22.0048 9.34981 9.859
1 21.2186 8.56167 9.88352
1 22.7988 9.36379 10.6643
1 23.5925 8.57009 10.6643
1 23.6017 9.35337 9.8545
1 22.8206 8.56712 9.86916
1 24.3862 9.36379 10.6643
1 25.1799 8.57009 10.6643
1 25.1924 9.34605 9.90401
1 24.3754 8.55323 9.87615
1 25.9736 9.36379 10.6643
1 26.7673 8.57009 10.6643
1 26.7776 9.38087 9.86944
1 25.9979 8.56096 9.87617
1 27.561 9.36379 10.6643
1 28.3547 8.57009 10.6643
1 28.3572 9.36403 9.86145
1 27.5787 8.58055 9.87691
1 29.1484 9.36379 10.6643
1 29.9421 8.57009 10.6643
1 29.9333 9.35556 9.86725
1 29.1273 8.55639 9.88194
1 0.735818 9.36379 10.6643
1 1.52952 8.57009 10.6643
1 1.51098 9.37453 9.87179
1 0.707301 8.56388 9.86318
1 2.32322 9.36379 10.6643
1 3.11692 8.57009 10.6643
1 3.0519 9.39162 9.84988
1 2.31268 8.5788 9.84474
1 3.75 7.77639 10.6643
1 4.5437 6.98268 10.6643
1 4.56322 7.78677 9.8452
1 3.80804 6.99973 9.83272
1 5.3374 7.77639 10.6643
1 6.1311 6.98268 10.6643
1 6.13607 7.77648 9.87706
1 5.33728 6.99755 9.85507
1 6.9248 7.77639 10.6643
1 7.7185 6.98268 10.6643
1 7.7448 7.78734 9.88906
1 6.94247 7.00712 9.86457
1 8.5122 7.77639 10.6643
1 9.3059 6.98268 10.6643
1 9.28785 7.78818 9.84286
1 8.49707 6.97859 9.85959
1 10.0996 7.77639 10.6643
1 10.8933 6.98268 10.6643
1 10.8842 7.77357 9.88211
1 10.1053 7.0153 9.86548
1 11.687 7.77639 10.6643
1 12.4807 6.98268 10.6643
1 12.4726 7.75208 9.86023
1 11.6857 6.98997 9.89967
1 13.2744 7.77639 10.6643
1 14.0681 6.98268 10.6643
1 14.0549 7.77744 9.88729
1 13.2833 6.99286 9.89036
1 14.8618 7.77639 10.6643
1 15.6555 6.98268 10.6643
1 15.6547 7.80138 9.86291
1 14.8522 6.9826 9.87977
1 16.4492 7.77639 10.6643
1 17.2429 6.98268 10.6643
1 17.2381 7.76394 9.88488
1 16.4248 6.9642 9.88541
1 18.0366 7.77639 10.6643
1 18.8303 6.98268 10.6643
1 18.8388 7.75926 9.87872
1 18.0441 6.98642 9.89754
1 19.624 7.77639 10.6643
1 20.4177 6.98268 10.6643
1 20.4043 7.80251 9.85403
1 19.6105 6.95916 9.85278
1 21.2114 7.77639 10.6643
1 22.0051 6.98268 10.6643
1 22.0078 7.7786 9.87437
1 21.2065 6.9848 9.87641
1 22.7988 7.77639 10.6643
1 23.5925 6.98268 10.6643
1 23.619 7.76696 9.86769
1 22.826 6.99586 9.88797
1 24.3862 7.77639 10.6643
1 25.1799 6.98268 10.6643
1 25.1753 7.79535 9.89059
1 24.3922 6.95829 9.84598
1 25.9736 7.77639 10.6643
1 26.7673 6.98268 10.6643
1 26.7698 7.77854 9.87439
1 25.967 6.97559 9.85768
1 27.561 7.77639 10.6643
1 28.3547 6.98268 10.6643
1 28.3449 7.78964 9.86545
1 27.5676 7.00416 9.89753
1 29.1484 7.77639 10.6643
1 29.9421 6.98268 10.6643
1 29.9097 7.77319 9.86498
1 29.1608 6.98873 9.86444
1 0.735818 7.77639 10.6643
1 1.52952 6.98268 10.6643
1 1.52373 7.79605 9.86815
1 0.730372 6.98846 9.86137
1 2.32322 7.77639 10.6643
1 3.11692 6.98268 10.6643
1 3.05176 7.78713 9.84411
1 2.28286 6.98577 9.89213
1 3.75 6.18898 10.6643
1 4.5437 5.39528 10.6643
1 4.56629 6.20557 9.877
1 3.81187 5.38745 9.84691
1 5.3374 6.18898 10.6643
1 6.1311 5.39528 10.6643
1 6.13514 6.19179 9.85806
1 5.37458 5.38145 9.85282
1 6.9248 6.18898 10.6643
1 7.7185 5.39528 10.6643
1 7.72183 6.18594 9.87352
1 6.92762 5.39667 9.88193
1 8.5122 6.18898 10.6643
1 9.3059 5.39528 10.6643
1 9.3069 6.21593 9.86831
1 8.50928 5.39774 9.85565
1 10.0996 6.18898 10.6643
1 10.8933 5.39528 10.6643
1 10.8825 6.20404 9.89151
1 10.1121 5.39903 9.85465
1 11.687 6.18898 10.6643
1 12.4807 5.39528 10.6643
1 12.4615 6.19475 9.88091
1 11.6959 5.38788 9.87802