9376
Atoms. Timestep: 4000000
1 30 3.55271e-15 10.8519
1 0.793701 29.2063 10.8519
1 0.826929 29.9469 10.0057
1 0.0808026 29.1982 10.0102
1 1.5874 3.55271e-15 10.8519
1 2.3811 29.2063 10.8519
1 2.42555 29.9288 10.0495
1 1.58774 29.2277 10.0571
1 3.1748 3.55271e-15 10.8519
1 3.9685 29.2063 10.8519
1 3.97301 29.9056 10.0164
1 3.18153 29.1485 10.0512
1 4.7622 3.55271e-15 10.8519
1 5.5559 29.2063 10.8519
1 5.54122 29.9482 10.0208
1 4.76632 29.1791 10.0518
1 6.3496 3.55271e-15 10.8519
1 7.1433 29.2063 10.8519
1 7.15193 29.9478 10.0486
1 6.36004 29.1854 10.0865
1 7.93701 3.55271e-15 10.8519
1 8.73071 29.2063 10.8519
1 8.71193 29.9235 10.0211
1 7.93148 29.1499 10.0695
1 9.52441 3.55271e-15 10.8519
1 10.3181 29.2063 10.8519
1 10.3351 29.9129 10.0146
1 9.52909 29.1776 10.0398
1 11.1118 3.55271e-15 10.8519
1 11.9055 29.2063 10.8519
1 11.9143 29.9484 10.0292
1 11.1282 29.2077 10.06
1 12.6992 3.55271e-15 10.8519
1 13.4929 29.2063 10.8519
1 13.4856 29.9097 10.0282
1 12.6963 29.197 10.0407
1 14.2866 3.55271e-15 10.8519
1 15.0803 29.2063 10.8519
1 15.0893 29.923 10.0367
1 14.284 29.1833 10.0506
1 15.874 3.55271e-15 10.8519
1 16.6677 29.2063 10.8519
1 16.6857 29.9069 10.01
1 15.8824 29.1626 10.046
1 17.4614 3.55271e-15 10.8519
1 18.2551 29.2063 10.8519
1 18.2462 29.9168 10.0132
1 17.4645 29.1511 10.0527
1 19.0488 3.55271e-15 10.8519
1 19.8425 29.2063 10.8519
1 19.8606 29.9369 10.0191
1 19.0509 29.1676 10.0608
1 20.6362 3.55271e-15 10.8519
1 21.4299 29.2063 10.8519
1 21.4328 29.9398 9.996
1 20.6523 29.1625 10.0518
1 22.2236 3.55271e-15 10.8519
1 23.0173 29.2063 10.8519
1 23.0202 29.8976 10.0486
1 22.2186 29.1536 10.0394
1 23.811 3.55271e-15 10.8519
1 24.6047 29.2063 10.8519
1 24.626 29.9211 10.0382
1 23.8266 29.1706 10.0454
1 25.3984 3.55271e-15 10.8519
1 26.1921 29.2063 10.8519
1 26.1754 29.9502 10.0317
1 25.3885 29.175 10.039
1 26.9858 3.55271e-15 10.8519
1 27.7795 29.2063 10.8519
1 27.7755 29.9084 10.0009
1 26.9332 29.1714 10.0694
1 28.5732 3.55271e-15 10.8519
1 29.3669 29.2063 10.8519
1 29.3141 29.9423 9.98761
1 28.5472 29.165 10.0377
1 30 28.4126 10.8519
1 0.793701 27.6189 10.8519
1 0.830992 28.4208 10.0424
1 0.0746889 27.6136 10.0051
1 1.5874 28.4126 10.8519
1 2.3811 27.6189 10.8519
1 2.41192 28.3964 10.0632
1 1.59509 27.6163 10.0494
1 3.1748 28.4126 10.8519
1 3.9685 27.6189 10.8519
1 3.97479 28.3797 10.0478
1 3.19859 27.6196 10.0547
1 4.7622 28.4126 10.8519
1 5.5559 27.6189 10.8519
1 5.55517 28.3984 10.0663
1 4.74075 27.5878 10.0479
1 6.3496 28.4126 10.8519
1 7.1433 27.6189 10.8519
1 7.12803 28.3752 10.0592
1 6.33621 27.6088 10.0374
1 7.93701 28.4126 10.8519
1 8.73071 27.6189 10.8519
1 8.70104 28.4049 10.058
1 7.94716 27.5968 10.0708
1 9.52441 28.4126 10.8519
1 10.3181 27.6189 10.8519
1 10.3309 28.4122 10.0275
1 9.53337 27.592 10.0425
1 11.1118 28.4126 10.8519
1 11.9055 27.6189 10.8519
1 11.9054 28.3851 10.0631
1 11.0961 27.5974 10.0683
1 12.6992 28.4126 10.8519
1 13.4929 27.6189 10.8519
1 13.4888 28.4095 10.0374
1 12.6811 27.5728 10.0636
1 14.2866 28.4126 10.8519
1 15.0803 27.6189 10.8519
1 15.0624 28.3863 10.0775
1 14.2915 27.6019 10.0381
1 15.874 28.4126 10.8519
1 16.6677 27.6189 10.8519
1 16.6583 28.3962 10.072
1 15.8692 27.6229 10.0538
1 17.4614 28.4126 10.8519
1 18.2551 27.6189 10.8519
1 18.2504 28.3881 10.0523
1 17.4336 27.5839 10.0539
1 19.0488 28.4126 10.8519
1 19.8425 27.6189 10.8519
1 19.8369 28.4012 10.026
1 19.0541 27.5887 10.0377
1 20.6362 28.4126 10.8519
1 21.4299 27.6189 10.8519
1 21.4296 28.3759 10.0409
1 20.635 27.5748 10.0392
1 22.2236 28.4126 10.8519
1 23.0173 27.6189 10.8519
1 23.0297 28.3932 10.0566
1 22.2327 27.6015 10.039
1 23.811 28.4126 10.8519
1 24.6047 27.6189 10.8519
1 24.6277 28.3989 10.0829
1 23.8065 27.596 10.0594
1 25.3984 28.4126 10.8519
1 26.1921 27.6189 10.8519
1 26.1814 28.3839 10.0653
1 25.4 27.6014 10.0531
1 26.9858 28.4126 10.8519
1 27.7795 27.6189 10.8519
1 27.7713 28.3977 10.0567
1 26.9831 27.6255 10.06
1 28.5732 28.4126 10.8519
1 29.3669 27.6189 10.8519
1 29.2963 28.4152 10.012
1 28.5198 27.6304 10.0568
1 30 26.8252 10.8519
1 0.793701 26.0315 10.8519
1 0.840263 26.8407 10.0581
1 0.0604492 26.0353 10.0081
1 1.5874 26.8252 10.8519
1 2.3811 26.0315 10.8519
1 2.37739 26.8394 10.0609
1 1.60722 26.0391 10.0399
1 3.1748 26.8252 10.8519
1 3.9685 26.0315 10.8519
1 3.96632 26.816 10.0422
1 3.17099 26.0605 10.0334
1 4.7622 26.8252 10.8519
1 5.5559 26.0315 10.8519
1 5.55975 26.8156 10.0362
1 4.76479 26.0272 10.0423
1 6.3496 26.8252 10.8519
1 7.1433 26.0315 10.8519
1 7.12582 26.8197 10.0525
1 6.35597 26.0318 10.0752
1 7.93701 26.8252 10.8519
1 8.73071 26.0315 10.8519
1 8.73681 26.8307 10.0661
1 7.92602 26.0457 10.0761
1 9.52441 26.8252 10.8519
1 10.3181 26.0315 10.8519
1 10.3038 26.8093 10.0617
1 9.50687 26.0213 10.0563
1 11.1118 26.8252 10.8519
1 11.9055 26.0315 10.8519
1 11.8927 26.8041 10.0644
1 11.1085 26.0265 10.0607
1 12.6992 26.8252 10.8519
1 13.4929 26.0315 10.8519
1 13.4907 26.8068 10.0744
1 12.6823 26.0036 10.0418
1 14.2866 26.8252 10.8519
1 15.0803 26.0315 10.8519
1 15.07 26.8249 10.0447
1 14.279 26.0387 10.0422
1 15.874 26.8252 10.8519
1 16.6677 26.0315 10.8519
1 16.6757 26.8011 10.0714
1 15.8884 26.0233 10.0604
1 17.4614 26.8252 10.8519
1 18.2551 26.0315 10.8519
1 18.2699 26.8171 10.0545
1 17.4718 25.9906 10.0386
1 19.0488 26.8252 10.8519
1 19.8425 26.0315 10.8519
1 19.8249 26.8037 10.0468
1 19.0638 25.9944 10.0591
1 20.6362 26.8252 10.8519
1 21.4299 26.0315 10.8519
1 21.4426 26.8124 10.0383
1 20.6507 26.0261 10.0658
1 22.2236 26.8252 10.8519
1 23.0173 26.0315 10.8519
1 23.0092 26.8176 10.0587
1 22.2277 26.0284 10.0544
1 23.811 26.8252 10.8519
1 24.6047 26.0315 10.8519
1 24.6134 26.8273 10.051
1 23.8145 26.0435 10.0274
1 25.3984 26.8252 10.8519
1 26.1921 26.0315 10.8519
1 26.2041 26.7965 10.0507
1 25.3893 26.0378 10.0671
1 26.9858 26.8252 10.8519
1 27.7795 26.0315 10.8519
1 27.7848 26.7983 10.0581
1 26.9805 26.0147 10.0724
1 28.5732 26.8252 10.8519
1 29.3669 26.0315 10.8519
1 29.2949 26.8305 10.032
1 28.541 26.0384 10.0753
1 30 25.2378 10.8519
1 0.793701 24.4441 10.8519
1 0.815778 25.2488 10.0612
1 0.0976553 24.4131 10.0562
1 1.5874 25.2378 10.8519
1 2.3811 24.4441 10.8519
1 2.37086 25.2202 10.0553
1 1.59136 24.4282 10.0449
1 3.1748 25.2378 10.8519
1 3.9685 24.4441 10.8519
1 3.96482 25.2672 10.0658
1 3.1834 24.4572 10.0475
1 4.7622 25.2378 10.8519
1 5.5559 24.4441 10.8519
1 5.56218 25.2321 10.0627
1 4.7528 24.438 10.0487
1 6.3496 25.2378 10.8519
1 7.1433 24.4441 10.8519
1 7.13825 25.2404 10.0492
1 6.36421 24.4568 10.0438
1 7.93701 25.2378 10.8519
1 8.73071 24.4441 10.8519
1 8.68645 25.2449 10.0741
1 7.92533 24.4586 10.0363
1 9.52441 25.2378 10.8519
1 10.3181 24.4441 10.8519
1 10.3178 25.2312 10.0553
1 9.50004 24.427 10.0736
1 11.1118 25.2378 10.8519
1 11.9055 24.4441 10.8519
1 11.8877 25.2385 10.064
1 11.1031 24.4365 10.0528
1 12.6992 25.2378 10.8519
1 13.4929 24.4441 10.8519
1 13.5011 25.2422 10.0652
1 12.6872 24.4445 10.036
1 14.2866 25.2378 10.8519
1 15.0803 24.4441 10.8519
1 15.0641 25.2364 10.0659
1 14.2991 24.436 10.0481
1 15.874 25.2378 10.8519
1 16.6677 24.4441 10.8519
1 16.6636 25.2248 10.0536
1 15.8828 24.4476 10.0558
1 17.4614 25.2378 10.8519
1 18.2551 24.4441 10.8519
1 18.2458 25.2047 10.0472
1 17.4524 24.427 10.0461
1 19.0488 25.2378 10.8519
1 19.8425 24.4441 10.8519
1 19.8504 25.2318 10.0385
1 19.0613 24.4342 10.0463
1 20.6362 25.2378 10.8519
1 21.4299 24.4441 10.8519
1 21.4102 25.23 10.0569
1 20.6412 24.4211 10.0554
1 22.2236 25.2378 10.8519
1 23.0173 24.4441 10.8519
1 23.0217 25.2268 10.0598
1 22.2138 24.4378 10.0531
1 23.811 25.2378 10.8519
1 24.6047 24.4441 10.8519
1 24.6097 25.2324 10.0627
1 23.8174 24.4069 10.0655
1 25.3984 25.2378 10.8519
1 26.1921 24.4441 10.8519
1 26.1851 25.2658 10.0873
1 25.4036 24.4366 10.0474
1 26.9858 25.2378 10.8519
1 27.7795 24.4441 10.8519
1 27.7917 25.2181 10.0535
1 26.9598 24.4617 10.0844
1 28.5732 25.2378 10.8519
1 29.3669 24.4441 10.8519
1 29.3005 25.2097 10.0178
1 28.5414 24.4183 10.0535
1 30 23.6504 10.8519
1 0.793701 22.8567 10.8519
1 0.842736 23.6405 10.0503
1 0.0681343 22.8298 10.0321
1 1.5874 23.6504 10.8519
1 2.3811 22.8567 10.8519
1 2.38508 23.6438 10.0619
1 1.60855 22.8596 10.074
1 3.1748 23.6504 10.8519
1 3.9685 22.8567 10.8519
1 3.96243 23.676 10.038
1 3.18703 22.8671 10.0935
1 4.7622 23.6504 10.8519
1 5.5559 22.8567 10.8519
1 5.56651 23.6661 10.0456
1 4.75919 22.8481 10.0576
1 6.3496 23.6504 10.8519
1 7.1433 22.8567 10.8519
1 7.15171 23.6501 10.0433
1 6.34546 22.8491 10.0681
1 7.93701 23.6504 10.8519
1 8.73071 22.8567 10.8519
1 8.69519 23.631 10.0542
1 7.94245 22.8382 10.0579
1 9.52441 23.6504 10.8519
1 10.3181 22.8567 10.8519
1 10.3067 23.6615 10.0417
1 9.52047 22.8442 10.0674
1 11.1118 23.6504 10.8519
1 11.9055 22.8567 10.8519
1 11.8923 23.6514 10.056
1 11.0882 22.8685 10.0743
1 12.6992 23.6504 10.8519
1 13.4929 22.8567 10.8519
1 13.4984 23.6575 10.0571
1 12.7101 22.8665 10.0536
1 14.2866 23.6504 10.8519
1 15.0803 22.8567 10.8519
1 15.0768 23.657 10.0573
1 14.3111 22.8417 10.0725
1 15.874 23.6504 10.8519
1 16.6677 22.8567 10.8519
1 16.6633 23.6514 10.0434
1 15.8708 22.8518 10.0551
1 17.4614 23.6504 10.8519
1 18.2551 22.8567 10.8519
1 18.2931 23.6432 10.0667
1 17.4475 22.8843 10.0581
1 19.0488 23.6504 10.8519
1 19.8425 22.8567 10.8519
1 19.8548 23.6433 10.065
1 19.0472 22.8536 10.0492
1 20.6362 23.6504 10.8519
1 21.4299 22.8567 10.8519
1 21.4244 23.6148 10.051
1 20.6207 22.8529 10.0635
1 22.2236 23.6504 10.8519
1 23.0173 22.8567 10.8519
1 23.0087 23.6717 10.0376
1 22.2148 22.8642 10.0573
1 23.811 23.6504 10.8519
1 24.6047 22.8567 10.8519
1 24.6141 23.6263 10.0546
1 23.805 22.8453 10.0546
1 25.3984 23.6504 10.8519
1 26.1921 22.8567 10.8519
1 26.1911 23.6625 10.0755
1 25.4009 22.824 10.0623
1 26.9858 23.6504 10.8519
1 27.7795 22.8567 10.8519
1 27.7567 23.6608 10.0592
1 26.979 22.8363 10.0589
1 28.5732 23.6504 10.8519
1 29.3669 22.8567 10.8519
1 29.3129 23.6312 10.0377
1 28.5102 22.8834 10.0475
1 30 22.063 10.8519
1 0.793701 21.2693 10.8519
1 0.817599 22.0559 10.0518
1 0.054885 21.2761 10.0469
1 1.5874 22.063 10.8519
1 2.3811 21.2693 10.8519
1 2.38198 22.0763 10.0772
1 1.6255 21.2873 10.064
1 3.1748 22.063 10.8519
1 3.9685 21.2693 10.8519
1 3.99059 22.0812 10.0651
1 3.14212 21.2926 10.0486
1 4.7622 22.063 10.8519
1 5.5559 21.2693 10.8519
1 5.53477 22.0502 10.0629
1 4.74604 21.2634 10.0511
1 6.3496 22.063 10.8519
1 7.1433 21.2693 10.8519
1 7.13825 22.0474 10.0558
1 6.34211 21.2417 10.0642
1 7.93701 22.063 10.8519
1 8.73071 21.2693 10.8519
1 8.7006 22.0559 10.0563
1 7.95557 21.2539 10.0376
1 9.52441 22.063 10.8519
1 10.3181 21.2693 10.8519
1 10.3082 22.0561 10.0649
1 9.50617 21.2485 10.038
1 11.1118 22.063 10.8519
1 11.9055 21.2693 10.8519
1 11.8924 22.0575 10.0585
1 11.1162 21.2787 10.0696
1 12.6992 22.063 10.8519
1 13.4929 21.2693 10.8519
1 13.4977 22.0675 10.0724
1 12.6968 21.2544 10.0609
1 14.2866 22.063 10.8519
1 15.0803 21.2693 10.8519
1 15.0913 22.0454 10.056
1 14.2851 21.2835 10.0728
1 15.874 22.063 10.8519
1 16.6677 21.2693 10.8519
1 16.6738 22.055 10.0642
1 15.8835 21.2673 10.0632
1 17.4614 22.063 10.8519
1 18.2551 21.2693 10.8519
1 18.2382 22.0608 10.0587
1 17.4325 21.2733 10.0476
1 19.0488 22.063 10.8519
1 19.8425 21.2693 10.8519
1 19.8557 22.053 10.0399
1 19.0389 21.2411 10.1003
1 20.6362 22.063 10.8519
1 21.4299 21.2693 10.8519
1 21.4104 22.0909 10.0607
1 20.6434 21.2546 10.0513
1 22.2236 22.063 10.8519
1 23.0173 21.2693 10.8519
1 23.0225 22.081 10.0569
1 22.2243 21.2604 10.076
1 23.811 22.063 10.8519
1 24.6047 21.2693 10.8519
1 24.5885 22.0735 10.0528
1 23.8196 21.2662 10.0753
1 25.3984 22.063 10.8519
1 26.1921 21.2693 10.8519
1 26.1965 22.0456 10.0472
1 25.398 21.2887 10.0531
1 26.9858 22.063 10.8519
1 27.7795 21.2693 10.8519
1 27.7524 22.0531 10.034
1 26.9751 21.2602 10.0471
1 28.5732 22.063 10.8519
1 29.3669 21.2693 10.8519
1 29.2874 22.0748 10.061
1 28.5381 21.2686 10.0366
1 30 20.4756 10.8519
1 0.793701 19.6819 10.8519
1 0.818236 20.4941 10.0566
1 0.0507769 19.6921 10.0234
1 1.5874 20.4756 10.8519
1 2.3811 19.6819 10.8519
1 2.3943 20.4662 10.0627
1 1.58688 19.6886 10.0601
1 3.1748 20.4756 10.8519
1 3.9685 19.6819 10.8519
1 3.98057 20.483 10.0665
1 3.17902 19.6662 10.0711
1 4.7622 20.4756 10.8519
1 5.5559 19.6819 10.8519
1 5.55418 20.4638 10.0488
1 4.78012 19.6683 10.0598
1 6.3496 20.4756 10.8519
1 7.1433 19.6819 10.8519
1 7.15956 20.4872 10.0531
1 6.3797 19.6874 10.0394
1 7.93701 20.4756 10.8519
1 8.73071 19.6819 10.8519
1 8.733 20.4895 10.0627
1 7.95179 19.6776 10.0583
1 9.52441 20.4756 10.8519
1 10.3181 19.6819 10.8519
1 10.3147 20.4869 10.0565
1 9.57121 19.6599 10.0698
1 11.1118 20.4756 10.8519
1 11.9055 19.6819 10.8519
1 11.9071 20.478 10.0688
1 11.1132 19.6972 10.0419
1 12.6992 20.4756 10.8519
1 13.4929 19.6819 10.8519
1 13.4778 20.4875 10.0709
1 12.7032 19.6847 10.0549
1 14.2866 20.4756 10.8519
1 15.0803 19.6819 10.8519
1 15.0746 20.489 10.0438
1 14.2979 19.6944 10.0696
1 15.874 20.4756 10.8519
1 16.6677 19.6819 10.8519
1 16.6593 20.4795 10.0604
1 15.894 19.6698 10.0342
1 17.4614 20.4756 10.8519
1 18.2551 19.6819 10.8519
1 18.244 20.4519 10.0644
1 17.4491 19.6922 10.0617
1 19.0488 20.4756 10.8519
1 19.8425 19.6819 10.8519
1 19.8285 20.497 10.0687
1 19.0278 19.6772 10.062
1 20.6362 20.4756 10.8519
1 21.4299 19.6819 10.8519
1 21.4225 20.4532 10.0547
1 20.6448 19.7133 10.0375
1 22.2236 20.4756 10.8519
1 23.0173 19.6819 10.8519
1 23.0401 20.4729 10.0677
1 22.2171 19.6633 10.0595
1 23.811 20.4756 10.8519
1 24.6047 19.6819 10.8519
1 24.5952 20.5196 10.0702
1 23.8272 19.7023 10.0593
1 25.3984 20.4756 10.8519
1 26.1921 19.6819 10.8519
1 26.1915 20.4914 10.0604
1 25.377 19.7098 10.0807
1 26.9858 20.4756 10.8519
1 27.7795 19.6819 10.8519
1 27.7793 20.4704 10.0476
1 26.9833 19.6754 10.0564
1 28.5732 20.4756 10.8519
1 29.3669 19.6819 10.8519
1 29.3145 20.479 10.0102
1 28.5298 19.7123 10.0386
1 30 18.8882 10.8519
1 0.793701 18.0945 10.8519
1 0.824654 18.8783 10.0647
1 0.0640797 18.0818 10.0437
1 1.5874 18.8882 10.8519
1 2.3811 18.0945 10.8519
1 2.39881 18.8888 10.0285
1 1.59258 18.1261 10.0579
1 3.1748 18.8882 10.8519
1 3.9685 18.0945 10.8519
1 3.98104 18.8745 10.0773
1 3.18274 18.1144 10.0618
1 4.7622 18.8882 10.8519
1 5.5559 18.0945 10.8519
1 5.5672 18.8672 10.0549
1 4.76401 18.1067 10.0977
1 6.3496 18.8882 10.8519
1 7.1433 18.0945 10.8519
1 7.12633 18.9049 10.045
1 6.36693 18.0887 10.058
1 7.93701 18.8882 10.8519
1 8.73071 18.0945 10.8519
1 8.72852 18.8978 10.0643
1 7.94296 18.0947 10.057
1 9.52441 18.8882 10.8519
1 10.3181 18.0945 10.8519
1 10.3298 18.8812 10.0454
1 9.53315 18.0996 10.0579
1 11.1118 18.8882 10.8519
1 11.9055 18.0945 10.8519
1 11.9331 18.8954 10.0417
1 11.1319 18.1008 10.0732
1 12.6992 18.8882 10.8519
1 13.4929 18.0945 10.8519
1 13.4941 18.8862 10.0526
1 12.7236 18.0829 10.0665
1 14.2866 18.8882 10.8519
1 15.0803 18.0945 10.8519
1 15.0804 18.9151 10.0547
1 14.3175 18.0945 10.0407
1 15.874 18.8882 10.8519
1 16.6677 18.0945 10.8519
1 16.6633 18.9136 10.0719
1 15.8938 18.0897 10.0633
1 17.4614 18.8882 10.8519
1 18.2551 18.0945 10.8519
1 18.2491 18.8879 10.0618
1 17.4416 18.1061 10.0714
1 19.0488 18.8882 10.8519
1 19.8425 18.0945 10.8519
1 19.8622 18.9227 10.0619
1 19.0369 18.11 10.0664
1 20.6362 18.8882 10.8519
1 21.4299 18.0945 10.8519
1 21.4319 18.8831 10.0634
1 20.6277 18.0914 10.0343
1 22.2236 18.8882 10.8519
1 23.0173 18.0945 10.8519
1 23.027 18.8859 10.0665
1 22.252 18.0834 10.0715
1 23.811 18.8882 10.8519
1 24.6047 18.0945 10.8519
1 24.5959 18.8849 10.0604
1 23.8326 18.0782 10.0647
1 25.3984 18.8882 10.8519
1 26.1921 18.0945 10.8519
1 26.1806 18.9232 10.046
1 25.4054 18.0992 10.0558
1 26.9858 18.8882 10.8519
1 27.7795 18.0945 10.8519
1 27.7941 18.8856 10.0335
1 26.9771 18.117 10.0792
1 28.5732 18.8882 10.8519
1 29.3669 18.0945 10.8519
1 29.3037 18.8793 10.0464
1 28.5466 18.0914 10.0376
1 30 17.3008 10.8519
1 0.793701 16.5071 10.8519
1 0.83747 17.3233 10.0692
1 0.0705411 16.5175 10.0452
1 1.5874 17.3008 10.8519
1 2.3811 16.5071 10.8519
1 2.37887 17.3175 10.076
1 1.62579 16.4939 10.0487
1 3.1748 17.3008 10.8519
1 3.9685 16.5071 10.8519
1 3.96877 17.3237 10.0536
1 3.17917 16.4905 10.0701
1 4.7622 17.3008 10.8519
1 5.5559 16.5071 10.8519
1 5.54664 17.3386 10.0832
1 4.75968 16.5096 10.0827
1 6.3496 17.3008 10.8519
1 7.1433 16.5071 10.8519
1 7.14399 17.321 10.0556
1 6.35317 16.4993 10.0731
1 7.93701 17.3008 10.8519
1 8.73071 16.5071 10.8519
1 8.71259 17.3224 10.0677
1 7.92494 16.5021 10.0536
1 9.52441 17.3008 10.8519
1 10.3181 16.5071 10.8519
1 10.298 17.3236 10.0622
1 9.52098 16.5235 10.0613
1 11.1118 17.3008 10.8519
1 11.9055 16.5071 10.8519
1 11.9203 17.3168 10.0476
1 11.0919 16.5421 10.0743
1 12.6992 17.3008 10.8519
1 13.4929 16.5071 10.8519
1 13.5069 17.2925 10.0355
1 12.7225 16.5211 10.0401
1 14.2866 17.3008 10.8519
1 15.0803 16.5071 10.8519
1 15.0812 17.3239 10.0479
1 14.2865 16.5035 10.0734
1 15.874 17.3008 10.8519
1 16.6677 16.5071 10.8519
1 16.6689 17.2909 10.0859
1 15.8723 16.4732 10.0734
1 17.4614 17.3008 10.8519
1 18.2551 16.5071 10.8519
1 18.2486 17.3115 10.0768
1 17.4519 16.4881 10.0509
1 19.0488 17.3008 10.8519
1 19.8425 16.5071 10.8519
1 19.8461 17.3002 10.0672
1 19.0602 16.4932 10.0454
1 20.6362 17.3008 10.8519
1 21.4299 16.5071 10.8519
1 21.4357 17.3 10.077
1 20.6538 16.4899 10.0431
1 22.2236 17.3008 10.8519
1 23.0173 16.5071 10.8519
1 23.0329 17.2895 10.0577
1 22.2356 16.5039 10.0646
1 23.811 17.3008 10.8519
1 24.6047 16.5071 10.8519
1 24.608 17.2991 10.0443
1 23.8009 16.4911 10.0649
1 25.3984 17.3008 10.8519
1 26.1921 16.5071 10.8519
1 26.2009 17.2859 10.0724
1 25.4133 16.496 10.0682
1 26.9858 17.3008 10.8519
1 27.7795 16.5071 10.8519
1 27.7764 17.2723 10.0418
1 26.9713 16.5029 10.0718
1 28.5732 17.3008 10.8519
1 29.3669 16.5071 10.8519
1 29.3068 17.2839 10.0395
1 28.5215 16.5109 10.0785
1 30 15.7134 10.8519
1 0.793701 14.9197 10.8519
1 0.846524 15.7297 10.0477
1 0.0827662 14.9197 10.0472
1 1.5874 15.7134 10.8519
1 2.3811 14.9197 10.8519
1 2.37816 15.7445 10.0597
1 1.6119 14.9371 10.0657
1 3.1748 15.7134 10.8519
1 3.9685 14.9197 10.8519
1 3.96527 15.693 10.0728
1 3.18116 14.944 10.083
1 4.7622 15.7134 10.8519
1 5.5559 14.9197 10.8519
1 5.57704 15.7314 10.0642
1 4.78862 14.9203 10.078
1 6.3496 15.7134 10.8519
1 7.1433 14.9197 10.8519
1 7.14414 15.6966 10.0372
1 6.33091 14.925 10.0574
1 7.93701 15.7134 10.8519
1 8.73071 14.9197 10.8519
1 8.72704 15.7123 10.0384
1 7.91821 14.8912 10.0637
1 9.52441 15.7134 10.8519
1 10.3181 14.9197 10.8519
1 10.3262 15.7079 10.0511
1 9.52911 14.916 10.0656
1 11.1118 15.7134 10.8519
1 11.9055 14.9197 10.8519
1 11.9065 15.731 10.0449
1 11.1016 14.9333 10.0698
1 12.6992 15.7134 10.8519
1 13.4929 14.9197 10.8519
1 13.4909 15.734 10.0662
1 12.7231 14.9514 10.073
1 14.2866 15.7134 10.8519
1 15.0803 14.9197 10.8519
1 15.082 15.7148 10.078
1 14.2695 14.9017 10.0589
1 15.874 15.7134 10.8519
1 16.6677 14.9197 10.8519
1 16.669 15.7057 10.0647
1 15.8928 14.9168 10.0566
1 17.4614 15.7134 10.8519
1 18.2551 14.9197 10.8519
1 18.2735 15.707 10.0532
1 17.4572 14.9195 10.0751
1 19.0488 15.7134 10.8519
1 19.8425 14.9197 10.8519
1 19.8587 15.6971 10.054
1 19.0358 14.9166 10.0684
1 20.6362 15.7134 10.8519
1 21.4299 14.9197 10.8519
1 21.4145 15.7007 10.0466
1 20.6214 14.9023 10.0458
1 22.2236 15.7134 10.8519
1 23.0173 14.9197 10.8519
1 23.0011 15.7166 10.0794
1 22.2026 14.9499 10.0517
1 23.811 15.7134 10.8519
1 24.6047 14.9197 10.8519
1 24.5915 15.7064 10.0695
1 23.8127 14.9092 10.0688
1 25.3984 15.7134 10.8519
1 26.1921 14.9197 10.8519
1 26.1631 15.7043 10.0929
1 25.3913 14.9052 10.0559
1 26.9858 15.7134 10.8519
1 27.7795 14.9197 10.8519
1 27.7711 15.6982 10.0564
1 26.9668 14.9191 10.0614
1 28.5732 15.7134 10.8519
1 29.3669 14.9197 10.8519
1 29.2898 15.7048 10.0229
1 28.5633 14.9037 10.0854
1 30 14.126 10.8519
1 0.793701 13.3323 10.8519
1 0.834021 14.1216 10.0429
1 0.0650068 13.3418 10.0289
1 1.5874 14.126 10.8519
1 2.3811 13.3323 10.8519
1 2.38543 14.1092 10.0564
1 1.60801 13.3324 10.0424
1 3.1748 14.126 10.8519
1 3.9685 13.3323 10.8519
1 3.97543 14.1244 10.0421
1 3.20714 13.3332 10.0608
1 4.7622 14.126 10.8519
1 5.5559 13.3323 10.8519
1 5.56488 14.1157 10.0561
1 4.76467 13.3588 10.0822
1 6.3496 14.126 10.8519
1 7.1433 13.3323 10.8519
1 7.14146 14.1144 10.0672
1 6.35426 13.3387 10.0594
1 7.93701 14.126 10.8519
1 8.73071 13.3323 10.8519
1 8.75508 14.1458 10.0629
1 7.92943 13.3429 10.04
1 9.52441 14.126 10.8519
1 10.3181 13.3323 10.8519
1 10.3422 14.1342 10.0694
1 9.51444 13.3413 10.0567
1 11.1118 14.126 10.8519
1 11.9055 13.3323 10.8519
1 11.9253 14.1336 10.0751
1 11.142 13.3463 10.0534
1 12.6992 14.126 10.8519
1 13.4929 13.3323 10.8519
1 13.5095 14.1361 10.0606
1 12.7136 13.3335 10.0394
1 14.2866 14.126 10.8519
1 15.0803 13.3323 10.8519
1 15.0523 14.1018 10.0466
1 14.2683 13.3192 10.0642
1 15.874 14.126 10.8519
1 16.6677 13.3323 10.8519
1 16.6654 14.104 10.0755
1 15.8905 13.324 10.0552
1 17.4614 14.126 10.8519
1 18.2551 13.3323 10.8519
1 18.2608 14.1429 10.0915
1 17.4833 13.3369 10.0552
1 19.0488 14.126 10.8519
1 19.8425 13.3323 10.8519
1 19.8536 14.1434 10.0712
1 19.0305 13.3514 10.0514
1 20.6362 14.126 10.8519
1 21.4299 13.3323 10.8519
1 21.4247 14.1337 10.0673
1 20.6437 13.3179 10.0693
1 22.2236 14.126 10.8519
1 23.0173 13.3323 10.8519
1 23.0109 14.1096 10.0432
1 22.2253 13.343 10.0605
1 23.811 14.126 10.8519
1 24.6047 13.3323 10.8519
1 24.6096 14.1043 10.0686
1 23.8036 13.3454 10.0544
1 25.3984 14.126 10.8519
1 26.1921 13.3323 10.8519
1 26.1894 14.12 10.0655
1 25.3974 13.3281 10.0558
1 26.9858 14.126 10.8519
1 27.7795 13.3323 10.8519
1 27.7701 14.1236 10.0506
1 26.982 13.3193 10.0613
1 28.5732 14.126 10.8519
1 29.3669 13.3323 10.8519
1 29.307 14.1202 10.0546
1 28.5328 13.3056 10.0479
1 30 12.5386 10.8519
1 0.793701 11.7449 10.8519
1 0.82901 12.5292 10.0527
1 0.0632006 11.7539 10.048
1 1.5874 12.5386 10.8519
1 2.3811 11.7449 10.8519
1 2.3881 12.5376 10.074
1 1.60533 11.7359 10.0856
1 3.1748 12.5386 10.8519
1 3.9685 11.7449 10.8519
1 3.97898 12.5465 10.0613
1 3.20565 11.7299 10.076
1 4.7622 12.5386 10.8519
1 5.5559 11.7449 10.8519
1 5.55939 12.5309 10.0465
1 4.78309 11.7545 10.0604
1 6.3496 12.5386 10.8519
1 7.1433 11.7449 10.8519
1 7.12588 12.53 10.0513
1 6.35983 11.7278 10.0588
1 7.93701 12.5386 10.8519
1 8.73071 11.7449 10.8519
1 8.73566 12.5604 10.0563
1 7.95262 11.7589 10.0486
1 9.52441 12.5386 10.8519
1 10.3181 11.7449 10.8519
1 10.3058 12.5363 10.0339
1 9.49907 11.7514 10.0513
1 11.1118 12.5386 10.8519
1 11.9055 11.7449 10.8519
1 11.9403 12.5152 10.0538
1 11.1247 11.7678 10.044
1 12.6992 12.5386 10.8519
1 13.4929 11.7449 10.8519
1 13.5034 12.513 10.0493
1 12.6751 11.7315 10.0735
1 14.2866 12.5386 10.8519
1 15.0803 11.7449 10.8519
1 15.0822 12.5725 10.0626
1 14.3034 11.7279 10.0346
1 15.874 12.5386 10.8519
1 16.6677 11.7449 10.8519
1 16.6831 12.5341 10.0469
1 15.8788 11.7264 10.0496
1 17.4614 12.5386 10.8519
1 18.2551 11.7449 10.8519
1 18.2575 12.5324 10.0495
1 17.4653 11.7272 10.0432
1 19.0488 12.5386 10.8519
1 19.8425 11.7449 10.8519
1 19.857 12.565 10.0461
1 19.0482 11.768 10.063
1 20.6362 12.5386 10.8519
1 21.4299 11.7449 10.8519
1 21.433 12.5378 10.0298
1 20.6529 11.7213 10.0721
1 22.2236 12.5386 10.8519
1 23.0173 11.7449 10.8519
1 23.0271 12.5448 10.0732
1 22.2191 11.7453 10.0578
1 23.811 12.5386 10.8519
1 24.6047 11.7449 10.8519
1 24.582 12.5442 10.0591
1 23.8281 11.7365 10.0452
1 25.3984 12.5386 10.8519
1 26.1921 11.7449 10.8519
1 26.184 12.5382 10.0813
1 25.3988 11.7218 10.0702
1 26.9858 12.5386 10.8519
1 27.7795 11.7449 10.8519
1 27.7645 12.5183 10.0745
1 26.9567 11.7497 10.0529
1 28.5732 12.5386 10.8519
1 29.3669 11.7449 10.8519
1 29.3103 12.5243 10.0271
1 28.5626 11.7503 10.0608
1 30 10.9512 10.8519
1 0.793701 10.1575 10.8519
1 0.818297 10.9291 10.0744
1 0.0699476 10.1405 10.0436
1 1.5874 10.9512 10.8519
1 2.3811 10.1575 10.8519
1 2.39085 10.9581 10.0594
1 1.59693 10.1631 10.0565
1 3.1748 10.9512 10.8519
1 3.9685 10.1575 10.8519
1 4.00283 10.9451 10.0737
1 3.15755 10.1605 10.0728
1 4.7622 10.9512 10.8519
1 5.5559 10.1575 10.8519
1 5.54834 10.9297 10.0581
1 4.75369 10.1623 10.0593
1 6.3496 10.9512 10.8519
1 7.1433 10.1575 10.8519
1 7.18689 10.9386 10.0437
1 6.37838 10.1715 10.0508
1 7.93701 10.9512 10.8519
1 8.73071 10.1575 10.8519
1 8.74103 10.9686 10.0798
1 7.93934 10.1483 10.0822
1 9.52441 10.9512 10.8519
1 10.3181 10.1575 10.8519
1 10.297 10.9667 10.077
1 9.53975 10.1439 10.038
1 11.1118 10.9512 10.8519
1 11.9055 10.1575 10.8519
1 11.8968 10.9599 10.0344
1 11.1063 10.1436 10.0673
1 12.6992 10.9512 10.8519
1 13.4929 10.1575 10.8519
1 13.4882 10.9305 10.0543
1 12.7097 10.171 10.0781
1 14.2866 10.9512 10.8519
1 15.0803 10.1575 10.8519
1 15.083 10.9386 10.0694
1 14.3014 10.1467 10.0647
1 15.874 10.9512 10.8519
1 16.6677 10.1575 10.8519
1 16.6853 10.9286 10.0736
1 15.872 10.1521 10.0463
1 17.4614 10.9512 10.8519
1 18.2551 10.1575 10.8519
1 18.2686 10.9276 10.0548
1 17.475 10.139 10.0562
1 19.0488 10.9512 10.8519
1 19.8425 10.1575 10.8519
1 19.8569 10.964 10.0593
1 19.0636 10.1475 10.0663
1 20.6362 10.9512 10.8519
1 21.4299 10.1575 10.8519
1 21.4449 10.9445 10.0427
1 20.6259 10.1676 10.0696
1 22.2236 10.9512 10.8519
1 23.0173 10.1575 10.8519
1 23.0082 10.9444 10.0537
1 22.2272 10.1513 10.0503
1 23.811 10.9512 10.8519
1 24.6047 10.1575 10.8519
1 24.5969 10.9626 10.055
1 23.7938 10.1621 10.0609
1 25.3984 10.9512 10.8519
1 26.1921 10.1575 10.8519
1 26.1635 10.9469 10.0583
1 25.3841 10.1618 10.0601
1 26.9858 10.9512 10.8519
1 27.7795 10.1575 10.8519
1 27.7614 10.9517 10.0411
1 26.9612 10.1417 10.0613
1 28.5732 10.9512 10.8519
1 29.3669 10.1575 10.8519
1 29.3075 10.9589 10.0548
1 28.5154 10.1494 10.063
1 30 9.36379 10.8519
1 0.793701 8.57009 10.8519
1 0.812136 9.37484 10.0451
1 0.0618307 8.58564 10.0326
1 1.5874 9.36379 10.8519
1 2.3811 8.57009 10.8519
1 2.39435 9.35854 10.0485
1 1.59446 8.58788 10.0521
1 3.1748 9.36379 10.8519
1 3.9685 8.57009 10.8519
1 3.94714 9.39723 10.0766
1 3.17794 8.58057 10.0639
1 4.7622 9.36379 10.8519
1 5.5559 8.57009 10.8519
1 5.55103 9.36618 10.0617
1 4.74488 8.56259 10.0613
1 6.3496 9.36379 10.8519
1 7.1433 8.57009 10.8519
1 7.15077 9.35304 10.0433
1 6.35234 8.5752 10.0559
1 7.93701 9.36379 10.8519
1 8.73071 8.57009 10.8519
1 8.7528 9.35791 10.0637
1 7.94607 8.55883 10.0646
1 9.52441 9.36379 10.8519
1 10.3181 8.57009 10.8519
1 10.3087 9.37388 10.0697
1 9.53389 8.58335 10.0582
1 11.1118 9.36379 10.8519
1 11.9055 8.57009 10.8519
1 11.9235 9.36573 10.0687
1 11.1142 8.55888 10.0553
1 12.6992 9.36379 10.8519
1 13.4929 8.57009 10.8519
1 13.494 9.34978 10.0555
1 12.699 8.55897 10.0824
1 14.2866 9.36379 10.8519
1 15.0803 8.57009 10.8519
1 15.0738 9.34212 10.0498
1 14.2686 8.56976 10.0657
1 15.874 9.36379 10.8519
1 16.6677 8.57009 10.8519
1 16.681 9.35726 10.0533
1 15.8709 8.55329 10.0857
1 17.4614 9.36379 10.8519
1 18.2551 8.57009 10.8519
1 18.256 9.36473 10.0635
1 17.4834 8.54767 10.0398
1 19.0488 9.36379 10.8519
1 19.8425 8.57009 10.8519
1 19.8646 9.3389 10.073
1 19.0566 8.59987 10.0211
1 20.6362 9.36379 10.8519
1 21.4299 8.57009 10.8519
1 21.4244 9.36356 10.0425
1 20.6568 8.57351 10.0485
1 22.2236 9.36379 10.8519
1 23.0173 8.57009 10.8519
1 23.0158 9.3901 10.0454
1 22.2133 8.60278 10.0433
1 23.811 9.36379 10.8519
1 24.6047 8.57009 10.8519
1 24.5982 9.37118 10.0577
1 23.7917 8.57744 10.0599
1 25.3984 9.36379 10.8519
1 26.1921 8.57009 10.8519
1 26.1847 9.34527 10.0433
1 25.3874 8.59154 10.0698
1 26.9858 9.36379 10.8519
1 27.7795 8.57009 10.8519
1 27.7622 9.3863 10.0518
1 26.9733 8.564 10.0431
1 28.5732 9.36379 10.8519
1 29.3669 8.57009 10.8519
1 29.2643 9.36418 10.035
1 28.5126 8.56226 10.0603
1 30 7.77639 10.8519
1 0.793701 6.98268 10.8519
1 0.823395 7.77752 10.0578
1 0.0715372 6.98157 10.0372
1 1.5874 7.77639 10.8519
1 2.3811 6.98268 10.8519
1 2.39161 7.79997 10.0581
1 1.61774 6.98932 10.0284
1 3.1748 7.77639 10.8519
1 3.9685 6.98268 10.8519
1 3.9697 7.79633 10.0809
1 3.1795 6.97491 10.0413
1 4.7622 7.77639 10.8519
1 5.5559 6.98268 10.8519
1 5.56342 7.75387 10.0469
1 4.74313 6.98694 10.0481
1 6.3496 7.77639 10.8519
1 7.1433 6.98268 10.8519
1 7.14174 7.77678 10.0774
1 6.36655 6.97973 10.0801
1 7.93701 7.77639 10.8519
1 8.73071 6.98268 10.8519
1 8.75114 7.77236 10.0496
1 7.95444 6.98008 10.0446
1 9.52441 7.77639 10.8519
1 10.3181 6.98268 10.8519
1 10.3177 7.79292 10.073
1 9.50241 6.99204 10.063
1 11.1118 7.77639 10.8519
1 11.9055 6.98268 10.8519
1 11.9226 7.7803 10.0584
1 11.1114 6.99697 10.0746
1 12.6992 7.77639 10.8519
1 13.4929 6.98268 10.8519
1 13.5239 7.78682 10.0467
1 12.7068 7.00656 10.0392
1 14.2866 7.77639 10.8519
1 15.0803 6.98268 10.8519
1 15.0476 7.77892 10.0534
1 14.2558 6.97628 10.0646
1 15.874 7.77639 10.8519
1 16.6677 6.98268 10.8519
1 16.6534 7.76021 10.0507
1 15.8634 6.97891 10.0333
1 17.4614 7.77639 10.8519
1 18.2551 6.98268 10.8519
1 18.3057 7.78568 10.0359
1 17.4737 7.00129 10.0627
1 19.0488 7.77639 10.8519
1 19.8425 6.98268 10.8519
1 19.8594 7.77271 10.0641
1 19.0587 7.01558 10.0507
1 20.6362 7.77639 10.8519
1 21.4299 6.98268 10.8519
1 21.4554 7.78737 10.0574
1 20.6604 7.0148 10.0679
1 22.2236 7.77639 10.8519
1 23.0173 6.98268 10.8519
1 22.9817 7.77712 10.0596
1 22.2131 6.97437 10.0586
1 23.811 7.77639 10.8519
1 24.6047 6.98268 10.8519
1 24.5938 7.76932 10.0473
1 23.8022 6.95598 10.0372
1 25.3984 7.77639 10.8519
1 26.1921 6.98268 10.8519
1 26.1937 7.77903 10.0133
1 25.4077 6.97464 10.0566
1 26.9858 7.77639 10.8519
1 27.7795 6.98268 10.8519
1 27.772 7.79007 10.0557
1 26.9918 6.98072 10.0481
1 28.5732 7.77639 10.8519
1 29.3669 6.98268 10.8519
1 29.3062 7.77968 10.0507
1 28.5478 6.97865 10.0518
1 30 6.18898 10.8519
1 0.793701 5.39528 10.8519
1 0.855737 6.17313 10.0304
1 0.0503214 5.38747 10.0206
1 1.5874 6.18898 10.8519
1 2.3811 5.39528 10.8519
1 2.39621 6.19997 10.0515
1 1.59028 5.39143 10.0734
1 3.1748 6.18898 10.8519
1 3.9685 5.39528 10.8519
1 3.9851 6.19701 10.0589
1 3.19042 5.39581 10.0626
1 4.7622 6.18898 10.8519
1 5.5559 5.39528 10.8519
1 5.56225 6.20302 10.0674
1 4.77728 5.37223 10.0739
1 6.3496 6.18898 10.8519
1 7.1433 5.39528 10.8519
1 7.14853 6.16559 10.039
1 6.32443 5.39756 10.0745
1 7.93701 6.18898 10.8519
1 8.73071 5.39528 10.8519
1 8.74842 6.19606 10.0455
1 7.9679 5.41028 10.0763