LAMMPS (5 Jun 2019)
OMP_NUM_THREADS environment is not set. Defaulting to 1 thread. (src/comm.cpp:88)
  using 1 OpenMP thread(s) per MPI task
#--- Brush Variables---#
variable      f      equal  1
variable      M      equal  $(v_f * 60)                 # The number of polymer chains on each brush
variable      M      equal  60                 
variable      N      string 30                 # The number of beads per chain
variable      xhi    equal  $(sqrt(v_f) * 30)                 # The width of the polymer Brush
variable      xhi    equal  30                 
variable      yhi    equal  $(sqrt(v_f) * 30)                 # The length of the polymer Brush
variable      yhi    equal  30                 
variable      wthick equal  3                  # The thickness of the walls wthick=1,2,3,4 gives 2,3,4,6 layers respectively

#--- Simulation Variables ---#
variable       Temp      index 1        #0.8 1 1.68                 #[Grest96]
variable       Tstep     equal 0.005                       # Timestep in Tau (default = 0.005)
variable       Nequil    equal 300000                       # Number of timesteps to equilibrate
variable       Ncomp     equal 700000                     # Number of timesteps to compress - until no more occilation of walls
variable       Nshear    equal 1000000      #2000000                      # Number of timesteps to shear - use approx 4ns for 10m/s
variable       Nthermo   equal 1000                        # Number of timesteps between thermo data prints
variable       Ndump_e   equal 10000
variable       Ndump_c   equal 10000                      # Number of timesteps per dump file (compression)
variable       Ndump_s   equal 10000                       # Number of timesteps per dump file (shear)
variable       Wall_vi   index 0.01 # 0.1 0.2 0.4 0.6 0.8 1 1.2 1.4 1.6 1.8 2                   # Wall velocity (A/fs) - equal to 10 m/s
variable       Pcomp     index 1 # 0.5 2 0.05 4 8
variable       Wall_v    equal $(v_Wall_vi * 0.00000001)        #Added to try scale down the strain rates (10^-8)
variable       Wall_v    equal 1.0000000000000000364e-10        

include        MDPBB.in
# This is an input script that creates a mono disperse polymer brush bilayer
# A coarse grained bead-spring model is used for the polymers which are end
# grafted to the surfaces of 2 opposing FCC walls at random sites.

#--- Initialization ---#

dimension     3
boundary      p p f
units         lj
atom_style    bond


#--- Moved to main.in ---#
#variable      M      equal  50                # The number of polymer chains on each brush
#variable      N      string 80                # The number of beads per chain
#variable      xhi    equal  15                # The width of the polymer Brush
#variable      yhi    equal  20                # The length of the polymer Brush
#variable      wthick equal  3                 # The thickness of the walls wthick=1,2,3,4 gives 2,3,4,6 layers respectively

variable      zhi    equal  $(1.1 * 2 * v_N + (2 * v_wthick))  # The initial height of the simulation box the value is such that no overlaps occur
variable      zhi    equal  72  
variable      z0     equal  $((v_zhi)/4 - (v_N)/30)          # This is the location at which to place the CoM of the molecule
variable      z0     equal  17          

print "The number of grafted chains = $(v_M)"
The number of grafted chains = 60
print "The number of beads per chain = $(v_N)"
The number of beads per chain = 30

variable      check  equal count(all)         # The number of atoms in the system
variable      ntwall equal count(twall)       # The number of atoms in the top wall
variable      nbwall equal count(bwall)       # The number of atoms in the bottom wall
variable      s equal 234897  #45335              # Seed for the RNG

print "zhi = ${zhi}"
zhi = 72

#--- Create the simulation box ---#

region        sbox block 0 ${xhi} 0 ${yhi} 0 ${zhi}
region        sbox block 0 30 0 ${yhi} 0 ${zhi}
region        sbox block 0 30 0 30 0 ${zhi}
region        sbox block 0 30 0 30 0 72
create_box    4 sbox bond/types 3 extra/bond/per/atom 12 extra/special/per/atom 2
Created orthogonal box = (0 0 0) to (30 30 72)
  1 by 1 by 1 MPI processor grid

mass          1 2.0                   # Wall atoms that are not grafted
mass          2 1.0                   # Grafted bead
mass          3 1.0                   # The rest of the beads on the chain
mass          4 2.0                   # Wall atoms that the chains are grafted to

bond_style    hybrid fene harmonic    # Finitely extensible linearly elastic bond between neighbouring beads
#bond_coeff    1 fene 30.0 1.5 0.0 0.0      # Values obtained from literature [Grest, Galushcko]
bond_coeff    1 fene 30.0 30.0 0.0 0.0
bond_coeff    2 fene 30.0 30.0 0.0 0.0       # This is the grafting bond between the polymer and the wall atom
special_bonds fene                    #
  0 = max # of 1-2 neighbors
  5 = max # of special neighbors
  special bonds CPU = 0.0004373 secs
pair_style	  lj/cut 1.122462         # LJ potential with rc=2^1/6
#pair_coeff	  * * 1.0 1.0             # LJ potential acts between all atoms
pair_coeff    1 1 0.0 0.0
pair_coeff    1 2 1.0 1.0
pair_coeff    1 3 1.0 1.0
pair_coeff    2 2 1.0 1.0
pair_coeff    2 3 1.0 1.0
pair_coeff    2 4 1.0 1.0
pair_coeff    3 3 1.0 1.0
pair_coeff    3 4 1.0 1.0
pair_coeff    4 4 0.0 0.0
neighbor      10 bin                  #
neigh_modify  one 4000

#--- Create and read the molecule file ---#
python        BSMolf input 1 $N format i file BSMolf.py
python        BSMolf input 1 30 format i file BSMolf.py
python        BSMolf invoke    # Call the python function with number of beads to write the mol file
molecule      bs     bsmol.txt     # Read the Mol file to define the polymer chain
Read molecule bs:
  30 atoms with max type 2
  29 bonds with max type 1
  0 angles with max type 0
  0 dihedrals with max type 0
  0 impropers with max type 0

#--- Define the FCC wall region ---#
region        wall  block 0 ${xhi} 0 ${yhi} 0 ${wthick}
region        wall  block 0 30 0 ${yhi} 0 ${wthick}
region        wall  block 0 30 0 30 0 ${wthick}
region        wall  block 0 30 0 30 0 3
lattice       fcc 1
Lattice spacing in x,y,z = 1.5874 1.5874 1.5874

#--- Create the Top Brush  (At the bottom then rotate 180 degrees to top) ---#

create_atoms  1 region wall
Created 2888 atoms
  create_atoms CPU = 0.0016084 secs
group         twall  region wall
2888 atoms in group twall
#group         tsurf  region wsurf

# A loop to insert the Chains into the sim box
variable      i loop $M                                   # Index to insert N total number of chains
variable      i loop 60                                   
label         loop                                        # Start of loop
variable      randni equal round(random(1,${ntwall},$s))  # Pick a random "top" wall atom
variable      randni equal round(random(1,2888,$s))  
variable      randni equal round(random(1,2888,234897))  
variable      randatomi equal ${randni}                   # This is to obtain an integer number for atom-id
variable      randatomi equal 1814                   
variable      randzi equal z[${randatomi}]                # Determine the z coordinate of the chosen atom
variable      randzi equal z[1814]                
# if the chosen atom is not a surface atom then restart the loop
if            "${randzi} < $(v_wthick - 0.7)" then "jump MDPBB.in loop"
jump MDPBB.in loop
variable      randni equal round(random(1,${ntwall},$s))  # Pick a random "top" wall atom
variable      randni equal round(random(1,2888,$s))  
variable      randni equal round(random(1,2888,234897))  
variable      randatomi equal ${randni}                   # This is to obtain an integer number for atom-id
variable      randatomi equal 455                   
variable      randzi equal z[${randatomi}]                # Determine the z coordinate of the chosen atom
variable      randzi equal z[455]                
# if the chosen atom is not a surface atom then restart the loop
if            "${randzi} < $(v_wthick - 0.7)" then "jump MDPBB.in loop"
jump MDPBB.in loop
variable      randni equal round(random(1,${ntwall},$s))  # Pick a random "top" wall atom
variable      randni equal round(random(1,2888,$s))  
variable      randni equal round(random(1,2888,234897))  
variable      randatomi equal ${randni}                   # This is to obtain an integer number for atom-id
variable      randatomi equal 2182                   
variable      randzi equal z[${randatomi}]                # Determine the z coordinate of the chosen atom
variable      randzi equal z[2182]                
# if the chosen atom is not a surface atom then restart the loop
if            "${randzi} < $(v_wthick - 0.7)" then "jump MDPBB.in loop"
jump MDPBB.in loop
variable      randni equal round(random(1,${ntwall},$s))  # Pick a random "top" wall atom
variable      randni equal round(random(1,2888,$s))  
variable      randni equal round(random(1,2888,234897))  
variable      randatomi equal ${randni}                   # This is to obtain an integer number for atom-id
variable      randatomi equal 2201                   
variable      randzi equal z[${randatomi}]                # Determine the z coordinate of the chosen atom
variable      randzi equal z[2201]                
# if the chosen atom is not a surface atom then restart the loop
if            "${randzi} < $(v_wthick - 0.7)" then "jump MDPBB.in loop"
jump MDPBB.in loop
variable      randni equal round(random(1,${ntwall},$s))  # Pick a random "top" wall atom
variable      randni equal round(random(1,2888,$s))  
variable      randni equal round(random(1,2888,234897))  
variable      randatomi equal ${randni}                   # This is to obtain an integer number for atom-id
variable      randatomi equal 2098                   
variable      randzi equal z[${randatomi}]                # Determine the z coordinate of the chosen atom
variable      randzi equal z[2098]                
# if the chosen atom is not a surface atom then restart the loop
if            "${randzi} < $(v_wthick - 0.7)" then "jump MDPBB.in loop"
jump MDPBB.in loop
variable      randni equal round(random(1,${ntwall},$s))  # Pick a random "top" wall atom
variable      randni equal round(random(1,2888,$s))  
variable      randni equal round(random(1,2888,234897))  
variable      randatomi equal ${randni}                   # This is to obtain an integer number for atom-id
variable      randatomi equal 2845                   
variable      randzi equal z[${randatomi}]                # Determine the z coordinate of the chosen atom
variable      randzi equal z[2845]                
# if the chosen atom is not a surface atom then restart the loop
if            "${randzi} < $(v_wthick - 0.7)" then "jump MDPBB.in loop"
jump MDPBB.in loop
variable      randni equal round(random(1,${ntwall},$s))  # Pick a random "top" wall atom
variable      randni equal round(random(1,2888,$s))  
variable      randni equal round(random(1,2888,234897))  
variable      randatomi equal ${randni}                   # This is to obtain an integer number for atom-id
variable      randatomi equal 1373                   
variable      randzi equal z[${randatomi}]                # Determine the z coordinate of the chosen atom
variable      randzi equal z[1373]                
# if the chosen atom is not a surface atom then restart the loop
if            "${randzi} < $(v_wthick - 0.7)" then "jump MDPBB.in loop"
jump MDPBB.in loop
variable      randni equal round(random(1,${ntwall},$s))  # Pick a random "top" wall atom
variable      randni equal round(random(1,2888,$s))  
variable      randni equal round(random(1,2888,234897))  
variable      randatomi equal ${randni}                   # This is to obtain an integer number for atom-id
variable      randatomi equal 968                   
variable      randzi equal z[${randatomi}]                # Determine the z coordinate of the chosen atom
variable      randzi equal z[968]                
# if the chosen atom is not a surface atom then restart the loop
if            "${randzi} < $(v_wthick - 0.7)" then "jump MDPBB.in loop"
jump MDPBB.in loop
variable      randni equal round(random(1,${ntwall},$s))  # Pick a random "top" wall atom
variable      randni equal round(random(1,2888,$s))  
variable      randni equal round(random(1,2888,234897))  
variable      randatomi equal ${randni}                   # This is to obtain an integer number for atom-id
variable      randatomi equal 1250                   
variable      randzi equal z[${randatomi}]                # Determine the z coordinate of the chosen atom
variable      randzi equal z[1250]                
# if the chosen atom is not a surface atom then restart the loop
if            "${randzi} < $(v_wthick - 0.7)" then "jump MDPBB.in loop"
jump MDPBB.in loop
variable      randni equal round(random(1,${ntwall},$s))  # Pick a random "top" wall atom
variable      randni equal round(random(1,2888,$s))  
variable      randni equal round(random(1,2888,234897))  
variable      randatomi equal ${randni}                   # This is to obtain an integer number for atom-id
variable      randatomi equal 2090                   
variable      randzi equal z[${randatomi}]                # Determine the z coordinate of the chosen atom
variable      randzi equal z[2090]                
# if the chosen atom is not a surface atom then restart the loop
if            "${randzi} < $(v_wthick - 0.7)" then "jump MDPBB.in loop"
jump MDPBB.in loop
variable      randni equal round(random(1,${ntwall},$s))  # Pick a random "top" wall atom
variable      randni equal round(random(1,2888,$s))  
variable      randni equal round(random(1,2888,234897))  
variable      randatomi equal ${randni}                   # This is to obtain an integer number for atom-id
variable      randatomi equal 2586                   
variable      randzi equal z[${randatomi}]                # Determine the z coordinate of the chosen atom
variable      randzi equal z[2586]                
# if the chosen atom is not a surface atom then restart the loop
if            "${randzi} < $(v_wthick - 0.7)" then "jump MDPBB.in loop"
jump MDPBB.in loop
variable      randni equal round(random(1,${ntwall},$s))  # Pick a random "top" wall atom
variable      randni equal round(random(1,2888,$s))  
variable      randni equal round(random(1,2888,234897))  
variable      randatomi equal ${randni}                   # This is to obtain an integer number for atom-id
variable      randatomi equal 21                   
variable      randzi equal z[${randatomi}]                # Determine the z coordinate of the chosen atom
variable      randzi equal z[21]                
# if the chosen atom is not a surface atom then restart the loop
if            "${randzi} < $(v_wthick - 0.7)" then "jump MDPBB.in loop"
jump MDPBB.in loop
variable      randni equal round(random(1,${ntwall},$s))  # Pick a random "top" wall atom
variable      randni equal round(random(1,2888,$s))  
variable      randni equal round(random(1,2888,234897))  
variable      randatomi equal ${randni}                   # This is to obtain an integer number for atom-id
variable      randatomi equal 550                   
variable      randzi equal z[${randatomi}]                # Determine the z coordinate of the chosen atom
variable      randzi equal z[550]                
# if the chosen atom is not a surface atom then restart the loop
if            "${randzi} < $(v_wthick - 0.7)" then "jump MDPBB.in loop"
jump MDPBB.in loop
variable      randni equal round(random(1,${ntwall},$s))  # Pick a random "top" wall atom
variable      randni equal round(random(1,2888,$s))  
variable      randni equal round(random(1,2888,234897))  
variable      randatomi equal ${randni}                   # This is to obtain an integer number for atom-id
variable      randatomi equal 944                   
variable      randzi equal z[${randatomi}]                # Determine the z coordinate of the chosen atom
variable      randzi equal z[944]                
# if the chosen atom is not a surface atom then restart the loop
if            "${randzi} < $(v_wthick - 0.7)" then "jump MDPBB.in loop"
jump MDPBB.in loop
variable      randni equal round(random(1,${ntwall},$s))  # Pick a random "top" wall atom
variable      randni equal round(random(1,2888,$s))  
variable      randni equal round(random(1,2888,234897))  
variable      randatomi equal ${randni}                   # This is to obtain an integer number for atom-id
variable      randatomi equal 2340                   
variable      randzi equal z[${randatomi}]                # Determine the z coordinate of the chosen atom
variable      randzi equal z[2340]                
# if the chosen atom is not a surface atom then restart the loop
if            "${randzi} < $(v_wthick - 0.7)" then "jump MDPBB.in loop"
set           atom ${randatomi} type 4                    # Set this grafted wall atom as a new type
set           atom 2340 type 4                    
  1 settings made for type
group         twg id ${randatomi}                         # Add this atom to a top-wall-grafted group
group         twg id 2340                         
1 atoms in group twg
variable      twgcount equal count(twg)
print         "twg contains ${twgcount}"
twg contains 1
print         "i = $(v_i)"                                # The index i should always be equal to the number of atom in twg
i = 1
variable      x0 equal x[${randatomi}]                    # Determine its x-coord
variable      x0 equal x[2340]                    
variable      y0 equal y[${randatomi}]                    # Determine its y-coord
variable      y0 equal y[2340]                    
variable      check0 equal ${check}                       # Count the number of atoms in the simulation
variable      check0 equal 2888                       
variable      b equal ${check}+1                          # The grafted bead id will be one higher after being inserted
variable      b equal 2888+1                          
if            "${twgcount} != $(v_i)" then "jump MDPBB.in loop"
# Otherwise insert the chain directly above the chosen wall atom pointing perpendicular to the wall
create_atoms  1 single ${x0} ${y0} ${z0} mol bs 24987 units box remap yes rotate 0 0 0 1
create_atoms  1 single 22.2236147275548 ${y0} ${z0} mol bs 24987 units box remap yes rotate 0 0 0 1
create_atoms  1 single 22.2236147275548 18.2551120976343 ${z0} mol bs 24987 units box remap yes rotate 0 0 0 1
create_atoms  1 single 22.2236147275548 18.2551120976343 17 mol bs 24987 units box remap yes rotate 0 0 0 1
Created 30 atoms
  create_atoms CPU = 0.0001322 secs
variable      check1 equal ${check}               # Count the new total number of atoms
variable      check1 equal 2918               
# Check that the molecule has indeed been inserted (This check is no longer an issue).
if            "${check1} != ${check0}" then "create_bonds  single/bond 2 ${randatomi} $b" "next i"
create_bonds  single/bond 2 ${randatomi} $b
create_bonds  single/bond 2 2340 $b
create_bonds  single/bond 2 2340 2889
  2 = max # of 1-2 neighbors
  5 = max # of special neighbors
  special bonds CPU = 0.0023157 secs
next i
jump MDPBB.in loop    # End of the loop
variable      randni equal round(random(1,${ntwall},$s))  # Pick a random "top" wall atom
variable      randni equal round(random(1,2888,$s))  
variable      randni equal round(random(1,2888,234897))  
variable      randatomi equal ${randni}                   # This is to obtain an integer number for atom-id
variable      randatomi equal 2049                   
variable      randzi equal z[${randatomi}]                # Determine the z coordinate of the chosen atom
variable      randzi equal z[2049]                
# if the chosen atom is not a surface atom then restart the loop
if            "${randzi} < $(v_wthick - 0.7)" then "jump MDPBB.in loop"
jump MDPBB.in loop
variable      randni equal round(random(1,${ntwall},$s))  # Pick a random "top" wall atom
variable      randni equal round(random(1,2888,$s))  
variable      randni equal round(random(1,2888,234897))  
variable      randatomi equal ${randni}                   # This is to obtain an integer number for atom-id
variable      randatomi equal 1989                   
variable      randzi equal z[${randatomi}]                # Determine the z coordinate of the chosen atom
variable      randzi equal z[1989]                
# if the chosen atom is not a surface atom then restart the loop
if            "${randzi} < $(v_wthick - 0.7)" then "jump MDPBB.in loop"
jump MDPBB.in loop
variable      randni equal round(random(1,${ntwall},$s))  # Pick a random "top" wall atom
variable      randni equal round(random(1,2888,$s))  
variable      randni equal round(random(1,2888,234897))  
variable      randatomi equal ${randni}                   # This is to obtain an integer number for atom-id
variable      randatomi equal 1613                   
variable      randzi equal z[${randatomi}]                # Determine the z coordinate of the chosen atom
variable      randzi equal z[1613]                
# if the chosen atom is not a surface atom then restart the loop
if            "${randzi} < $(v_wthick - 0.7)" then "jump MDPBB.in loop"
jump MDPBB.in loop
variable      randni equal round(random(1,${ntwall},$s))  # Pick a random "top" wall atom
variable      randni equal round(random(1,2888,$s))  
variable      randni equal round(random(1,2888,234897))  
variable      randatomi equal ${randni}                   # This is to obtain an integer number for atom-id
variable      randatomi equal 2250                   
variable      randzi equal z[${randatomi}]                # Determine the z coordinate of the chosen atom
variable      randzi equal z[2250]                
# if the chosen atom is not a surface atom then restart the loop
if            "${randzi} < $(v_wthick - 0.7)" then "jump MDPBB.in loop"
jump MDPBB.in loop
variable      randni equal round(random(1,${ntwall},$s))  # Pick a random "top" wall atom
variable      randni equal round(random(1,2888,$s))  
variable      randni equal round(random(1,2888,234897))  
variable      randatomi equal ${randni}                   # This is to obtain an integer number for atom-id
variable      randatomi equal 1777                   
variable      randzi equal z[${randatomi}]                # Determine the z coordinate of the chosen atom
variable      randzi equal z[1777]                
# if the chosen atom is not a surface atom then restart the loop
if            "${randzi} < $(v_wthick - 0.7)" then "jump MDPBB.in loop"
jump MDPBB.in loop
variable      randni equal round(random(1,${ntwall},$s))  # Pick a random "top" wall atom
variable      randni equal round(random(1,2888,$s))  
variable      randni equal round(random(1,2888,234897))  
variable      randatomi equal ${randni}                   # This is to obtain an integer number for atom-id
variable      randatomi equal 1790                   
variable      randzi equal z[${randatomi}]                # Determine the z coordinate of the chosen atom
variable      randzi equal z[1790]                
# if the chosen atom is not a surface atom then restart the loop
if            "${randzi} < $(v_wthick - 0.7)" then "jump MDPBB.in loop"
jump MDPBB.in loop
variable      randni equal round(random(1,${ntwall},$s))  # Pick a random "top" wall atom
variable      randni equal round(random(1,2888,$s))  
variable      randni equal round(random(1,2888,234897))  
variable      randatomi equal ${randni}                   # This is to obtain an integer number for atom-id
variable      randatomi equal 346                   
variable      randzi equal z[${randatomi}]                # Determine the z coordinate of the chosen atom
variable      randzi equal z[346]                
# if the chosen atom is not a surface atom then restart the loop
if            "${randzi} < $(v_wthick - 0.7)" then "jump MDPBB.in loop"
jump MDPBB.in loop
variable      randni equal round(random(1,${ntwall},$s))  # Pick a random "top" wall atom
variable      randni equal round(random(1,2888,$s))  
variable      randni equal round(random(1,2888,234897))  
variable      randatomi equal ${randni}                   # This is to obtain an integer number for atom-id
variable      randatomi equal 2515                   
variable      randzi equal z[${randatomi}]                # Determine the z coordinate of the chosen atom
variable      randzi equal z[2515]                
# if the chosen atom is not a surface atom then restart the loop
if            "${randzi} < $(v_wthick - 0.7)" then "jump MDPBB.in loop"
set           atom ${randatomi} type 4                    # Set this grafted wall atom as a new type
set           atom 2515 type 4                    
  1 settings made for type
group         twg id ${randatomi}                         # Add this atom to a top-wall-grafted group
group         twg id 2515                         
2 atoms in group twg
variable      twgcount equal count(twg)
print         "twg contains ${twgcount}"
twg contains 2
print         "i = $(v_i)"                                # The index i should always be equal to the number of atom in twg
i = 2
variable      x0 equal x[${randatomi}]                    # Determine its x-coord
variable      x0 equal x[2515]                    
variable      y0 equal y[${randatomi}]                    # Determine its y-coord
variable      y0 equal y[2515]                    
variable      check0 equal ${check}                       # Count the number of atoms in the simulation
variable      check0 equal 2918                       
variable      b equal ${check}+1                          # The grafted bead id will be one higher after being inserted
variable      b equal 2918+1                          
if            "${twgcount} != $(v_i)" then "jump MDPBB.in loop"
# Otherwise insert the chain directly above the chosen wall atom pointing perpendicular to the wall
create_atoms  1 single ${x0} ${y0} ${z0} mol bs 24987 units box remap yes rotate 0 0 0 1
create_atoms  1 single 2.3811015779523 ${y0} ${z0} mol bs 24987 units box remap yes rotate 0 0 0 1
create_atoms  1 single 2.3811015779523 22.2236147275548 ${z0} mol bs 24987 units box remap yes rotate 0 0 0 1
create_atoms  1 single 2.3811015779523 22.2236147275548 17 mol bs 24987 units box remap yes rotate 0 0 0 1
Created 30 atoms
  create_atoms CPU = 6.1e-05 secs
variable      check1 equal ${check}               # Count the new total number of atoms
variable      check1 equal 2948               
# Check that the molecule has indeed been inserted (This check is no longer an issue).
if            "${check1} != ${check0}" then "create_bonds  single/bond 2 ${randatomi} $b" "next i"
create_bonds  single/bond 2 ${randatomi} $b
create_bonds  single/bond 2 2515 $b
create_bonds  single/bond 2 2515 2919
  2 = max # of 1-2 neighbors
  5 = max # of special neighbors
  special bonds CPU = 0.0034525 secs
next i
jump MDPBB.in loop    # End of the loop
variable      randni equal round(random(1,${ntwall},$s))  # Pick a random "top" wall atom
variable      randni equal round(random(1,2888,$s))  
variable      randni equal round(random(1,2888,234897))  
variable      randatomi equal ${randni}                   # This is to obtain an integer number for atom-id
variable      randatomi equal 1738                   
variable      randzi equal z[${randatomi}]                # Determine the z coordinate of the chosen atom
variable      randzi equal z[1738]                
# if the chosen atom is not a surface atom then restart the loop
if            "${randzi} < $(v_wthick - 0.7)" then "jump MDPBB.in loop"
jump MDPBB.in loop
variable      randni equal round(random(1,${ntwall},$s))  # Pick a random "top" wall atom
variable      randni equal round(random(1,2888,$s))  
variable      randni equal round(random(1,2888,234897))  
variable      randatomi equal ${randni}                   # This is to obtain an integer number for atom-id
variable      randatomi equal 2654                   
variable      randzi equal z[${randatomi}]                # Determine the z coordinate of the chosen atom
variable      randzi equal z[2654]                
# if the chosen atom is not a surface atom then restart the loop
if            "${randzi} < $(v_wthick - 0.7)" then "jump MDPBB.in loop"
jump MDPBB.in loop
variable      randni equal round(random(1,${ntwall},$s))  # Pick a random "top" wall atom
variable      randni equal round(random(1,2888,$s))  
variable      randni equal round(random(1,2888,234897))  
variable      randatomi equal ${randni}                   # This is to obtain an integer number for atom-id
variable      randatomi equal 2013                   
variable      randzi equal z[${randatomi}]                # Determine the z coordinate of the chosen atom
variable      randzi equal z[2013]                
# if the chosen atom is not a surface atom then restart the loop
if            "${randzi} < $(v_wthick - 0.7)" then "jump MDPBB.in loop"
jump MDPBB.in loop
variable      randni equal round(random(1,${ntwall},$s))  # Pick a random "top" wall atom
variable      randni equal round(random(1,2888,$s))  
variable      randni equal round(random(1,2888,234897))  
variable      randatomi equal ${randni}                   # This is to obtain an integer number for atom-id
variable      randatomi equal 2593                   
variable      randzi equal z[${randatomi}]                # Determine the z coordinate of the chosen atom
variable      randzi equal z[2593]                
# if the chosen atom is not a surface atom then restart the loop
if            "${randzi} < $(v_wthick - 0.7)" then "jump MDPBB.in loop"
jump MDPBB.in loop
variable      randni equal round(random(1,${ntwall},$s))  # Pick a random "top" wall atom
variable      randni equal round(random(1,2888,$s))  
variable      randni equal round(random(1,2888,234897))  
variable      randatomi equal ${randni}                   # This is to obtain an integer number for atom-id
variable      randatomi equal 1699                   
variable      randzi equal z[${randatomi}]                # Determine the z coordinate of the chosen atom
variable      randzi equal z[1699]                
# if the chosen atom is not a surface atom then restart the loop
if            "${randzi} < $(v_wthick - 0.7)" then "jump MDPBB.in loop"
set           atom ${randatomi} type 4                    # Set this grafted wall atom as a new type
set           atom 1699 type 4                    
  1 settings made for type
group         twg id ${randatomi}                         # Add this atom to a top-wall-grafted group
group         twg id 1699                         
3 atoms in group twg
variable      twgcount equal count(twg)
print         "twg contains ${twgcount}"
twg contains 3
print         "i = $(v_i)"                                # The index i should always be equal to the number of atom in twg
i = 3
variable      x0 equal x[${randatomi}]                    # Determine its x-coord
variable      x0 equal x[1699]                    
variable      y0 equal y[${randatomi}]                    # Determine its y-coord
variable      y0 equal y[1699]                    
variable      check0 equal ${check}                       # Count the number of atoms in the simulation
variable      check0 equal 2948                       
variable      b equal ${check}+1                          # The grafted bead id will be one higher after being inserted
variable      b equal 2948+1                          
if            "${twgcount} != $(v_i)" then "jump MDPBB.in loop"
# Otherwise insert the chain directly above the chosen wall atom pointing perpendicular to the wall
create_atoms  1 single ${x0} ${y0} ${z0} mol bs 24987 units box remap yes rotate 0 0 0 1
create_atoms  1 single 10.3181068377933 ${y0} ${z0} mol bs 24987 units box remap yes rotate 0 0 0 1
create_atoms  1 single 10.3181068377933 4.7622031559046 ${z0} mol bs 24987 units box remap yes rotate 0 0 0 1
create_atoms  1 single 10.3181068377933 4.7622031559046 17 mol bs 24987 units box remap yes rotate 0 0 0 1
Created 30 atoms
  create_atoms CPU = 0.000161 secs
variable      check1 equal ${check}               # Count the new total number of atoms
variable      check1 equal 2978               
# Check that the molecule has indeed been inserted (This check is no longer an issue).
if            "${check1} != ${check0}" then "create_bonds  single/bond 2 ${randatomi} $b" "next i"
create_bonds  single/bond 2 ${randatomi} $b
create_bonds  single/bond 2 1699 $b
create_bonds  single/bond 2 1699 2949
  2 = max # of 1-2 neighbors
  5 = max # of special neighbors
  special bonds CPU = 0.0043781 secs
next i
jump MDPBB.in loop    # End of the loop
variable      randni equal round(random(1,${ntwall},$s))  # Pick a random "top" wall atom
variable      randni equal round(random(1,2888,$s))  
variable      randni equal round(random(1,2888,234897))  
variable      randatomi equal ${randni}                   # This is to obtain an integer number for atom-id
variable      randatomi equal 2456                   
variable      randzi equal z[${randatomi}]                # Determine the z coordinate of the chosen atom
variable      randzi equal z[2456]                
# if the chosen atom is not a surface atom then restart the loop
if            "${randzi} < $(v_wthick - 0.7)" then "jump MDPBB.in loop"
set           atom ${randatomi} type 4                    # Set this grafted wall atom as a new type
set           atom 2456 type 4                    
  1 settings made for type
group         twg id ${randatomi}                         # Add this atom to a top-wall-grafted group
group         twg id 2456                         
4 atoms in group twg
variable      twgcount equal count(twg)
print         "twg contains ${twgcount}"
twg contains 4
print         "i = $(v_i)"                                # The index i should always be equal to the number of atom in twg
i = 4
variable      x0 equal x[${randatomi}]                    # Determine its x-coord
variable      x0 equal x[2456]                    
variable      y0 equal y[${randatomi}]                    # Determine its y-coord
variable      y0 equal y[2456]                    
variable      check0 equal ${check}                       # Count the number of atoms in the simulation
variable      check0 equal 2978                       
variable      b equal ${check}+1                          # The grafted bead id will be one higher after being inserted
variable      b equal 2978+1                          
if            "${twgcount} != $(v_i)" then "jump MDPBB.in loop"
# Otherwise insert the chain directly above the chosen wall atom pointing perpendicular to the wall
create_atoms  1 single ${x0} ${y0} ${z0} mol bs 24987 units box remap yes rotate 0 0 0 1
create_atoms  1 single 7.937005259841 ${y0} ${z0} mol bs 24987 units box remap yes rotate 0 0 0 1
create_atoms  1 single 7.937005259841 21.4299142015707 ${z0} mol bs 24987 units box remap yes rotate 0 0 0 1
create_atoms  1 single 7.937005259841 21.4299142015707 17 mol bs 24987 units box remap yes rotate 0 0 0 1
Created 30 atoms
  create_atoms CPU = 0.0001034 secs
variable      check1 equal ${check}               # Count the new total number of atoms
variable      check1 equal 3008               
# Check that the molecule has indeed been inserted (This check is no longer an issue).
if            "${check1} != ${check0}" then "create_bonds  single/bond 2 ${randatomi} $b" "next i"
create_bonds  single/bond 2 ${randatomi} $b
create_bonds  single/bond 2 2456 $b
create_bonds  single/bond 2 2456 2979
  2 = max # of 1-2 neighbors
  5 = max # of special neighbors
  special bonds CPU = 0.0040867 secs
next i
jump MDPBB.in loop    # End of the loop
variable      randni equal round(random(1,${ntwall},$s))  # Pick a random "top" wall atom
variable      randni equal round(random(1,2888,$s))  
variable      randni equal round(random(1,2888,234897))  
variable      randatomi equal ${randni}                   # This is to obtain an integer number for atom-id
variable      randatomi equal 2420                   
variable      randzi equal z[${randatomi}]                # Determine the z coordinate of the chosen atom
variable      randzi equal z[2420]                
# if the chosen atom is not a surface atom then restart the loop
if            "${randzi} < $(v_wthick - 0.7)" then "jump MDPBB.in loop"
set           atom ${randatomi} type 4                    # Set this grafted wall atom as a new type
set           atom 2420 type 4                    
  1 settings made for type
group         twg id ${randatomi}                         # Add this atom to a top-wall-grafted group
group         twg id 2420                         
5 atoms in group twg
variable      twgcount equal count(twg)
print         "twg contains ${twgcount}"
twg contains 5
print         "i = $(v_i)"                                # The index i should always be equal to the number of atom in twg
i = 5
variable      x0 equal x[${randatomi}]                    # Determine its x-coord
variable      x0 equal x[2420]                    
variable      y0 equal y[${randatomi}]                    # Determine its y-coord
variable      y0 equal y[2420]                    
variable      check0 equal ${check}                       # Count the number of atoms in the simulation
variable      check0 equal 3008                       
variable      b equal ${check}+1                          # The grafted bead id will be one higher after being inserted
variable      b equal 3008+1                          
if            "${twgcount} != $(v_i)" then "jump MDPBB.in loop"
# Otherwise insert the chain directly above the chosen wall atom pointing perpendicular to the wall
create_atoms  1 single ${x0} ${y0} ${z0} mol bs 24987 units box remap yes rotate 0 0 0 1
create_atoms  1 single 23.811015779523 ${y0} ${z0} mol bs 24987 units box remap yes rotate 0 0 0 1
create_atoms  1 single 23.811015779523 19.8425131496025 ${z0} mol bs 24987 units box remap yes rotate 0 0 0 1
create_atoms  1 single 23.811015779523 19.8425131496025 17 mol bs 24987 units box remap yes rotate 0 0 0 1
Created 30 atoms
  create_atoms CPU = 6.65e-05 secs
variable      check1 equal ${check}               # Count the new total number of atoms
variable      check1 equal 3038               
# Check that the molecule has indeed been inserted (This check is no longer an issue).
if            "${check1} != ${check0}" then "create_bonds  single/bond 2 ${randatomi} $b" "next i"
create_bonds  single/bond 2 ${randatomi} $b
create_bonds  single/bond 2 2420 $b
create_bonds  single/bond 2 2420 3009
  2 = max # of 1-2 neighbors
  5 = max # of special neighbors
  special bonds CPU = 0.0033037 secs
next i
jump MDPBB.in loop    # End of the loop
variable      randni equal round(random(1,${ntwall},$s))  # Pick a random "top" wall atom
variable      randni equal round(random(1,2888,$s))  
variable      randni equal round(random(1,2888,234897))  
variable      randatomi equal ${randni}                   # This is to obtain an integer number for atom-id
variable      randatomi equal 1201                   
variable      randzi equal z[${randatomi}]                # Determine the z coordinate of the chosen atom
variable      randzi equal z[1201]                
# if the chosen atom is not a surface atom then restart the loop
if            "${randzi} < $(v_wthick - 0.7)" then "jump MDPBB.in loop"
jump MDPBB.in loop
variable      randni equal round(random(1,${ntwall},$s))  # Pick a random "top" wall atom
variable      randni equal round(random(1,2888,$s))  
variable      randni equal round(random(1,2888,234897))  
variable      randatomi equal ${randni}                   # This is to obtain an integer number for atom-id
variable      randatomi equal 2884                   
variable      randzi equal z[${randatomi}]                # Determine the z coordinate of the chosen atom
variable      randzi equal z[2884]                
# if the chosen atom is not a surface atom then restart the loop
if            "${randzi} < $(v_wthick - 0.7)" then "jump MDPBB.in loop"
set           atom ${randatomi} type 4                    # Set this grafted wall atom as a new type
set           atom 2884 type 4                    
  1 settings made for type
group         twg id ${randatomi}                         # Add this atom to a top-wall-grafted group
group         twg id 2884                         
6 atoms in group twg
variable      twgcount equal count(twg)
print         "twg contains ${twgcount}"
twg contains 6
print         "i = $(v_i)"                                # The index i should always be equal to the number of atom in twg
i = 6
variable      x0 equal x[${randatomi}]                    # Determine its x-coord
variable      x0 equal x[2884]                    
variable      y0 equal y[${randatomi}]                    # Determine its y-coord
variable      y0 equal y[2884]                    
variable      check0 equal ${check}                       # Count the number of atoms in the simulation
variable      check0 equal 3038                       
variable      b equal ${check}+1                          # The grafted bead id will be one higher after being inserted
variable      b equal 3038+1                          
if            "${twgcount} != $(v_i)" then "jump MDPBB.in loop"
# Otherwise insert the chain directly above the chosen wall atom pointing perpendicular to the wall
create_atoms  1 single ${x0} ${y0} ${z0} mol bs 24987 units box remap yes rotate 0 0 0 1
create_atoms  1 single 26.9858178834594 ${y0} ${z0} mol bs 24987 units box remap yes rotate 0 0 0 1
create_atoms  1 single 26.9858178834594 29.3669194614117 ${z0} mol bs 24987 units box remap yes rotate 0 0 0 1
create_atoms  1 single 26.9858178834594 29.3669194614117 17 mol bs 24987 units box remap yes rotate 0 0 0 1
Created 30 atoms
  create_atoms CPU = 6.45e-05 secs
variable      check1 equal ${check}               # Count the new total number of atoms
variable      check1 equal 3068               
# Check that the molecule has indeed been inserted (This check is no longer an issue).
if            "${check1} != ${check0}" then "create_bonds  single/bond 2 ${randatomi} $b" "next i"
create_bonds  single/bond 2 ${randatomi} $b
create_bonds  single/bond 2 2884 $b
create_bonds  single/bond 2 2884 3039
  2 = max # of 1-2 neighbors
  5 = max # of special neighbors
  special bonds CPU = 0.0026436 secs
next i
jump MDPBB.in loop    # End of the loop
variable      randni equal round(random(1,${ntwall},$s))  # Pick a random "top" wall atom
variable      randni equal round(random(1,2888,$s))  
variable      randni equal round(random(1,2888,234897))  
variable      randatomi equal ${randni}                   # This is to obtain an integer number for atom-id
variable      randatomi equal 2815                   
variable      randzi equal z[${randatomi}]                # Determine the z coordinate of the chosen atom
variable      randzi equal z[2815]                
# if the chosen atom is not a surface atom then restart the loop
if            "${randzi} < $(v_wthick - 0.7)" then "jump MDPBB.in loop"
set           atom ${randatomi} type 4                    # Set this grafted wall atom as a new type
set           atom 2815 type 4                    
  1 settings made for type
group         twg id ${randatomi}                         # Add this atom to a top-wall-grafted group
group         twg id 2815                         
7 atoms in group twg
variable      twgcount equal count(twg)
print         "twg contains ${twgcount}"
twg contains 7
print         "i = $(v_i)"                                # The index i should always be equal to the number of atom in twg
i = 7
variable      x0 equal x[${randatomi}]                    # Determine its x-coord
variable      x0 equal x[2815]                    
variable      y0 equal y[${randatomi}]                    # Determine its y-coord
variable      y0 equal y[2815]                    
variable      check0 equal ${check}                       # Count the number of atoms in the simulation
variable      check0 equal 3068                       
variable      b equal ${check}+1                          # The grafted bead id will be one higher after being inserted
variable      b equal 3068+1                          
if            "${twgcount} != $(v_i)" then "jump MDPBB.in loop"
# Otherwise insert the chain directly above the chosen wall atom pointing perpendicular to the wall
create_atoms  1 single ${x0} ${y0} ${z0} mol bs 24987 units box remap yes rotate 0 0 0 1
create_atoms  1 single 0.7937005259841 ${y0} ${z0} mol bs 24987 units box remap yes rotate 0 0 0 1
create_atoms  1 single 0.7937005259841 28.5732189354276 ${z0} mol bs 24987 units box remap yes rotate 0 0 0 1
create_atoms  1 single 0.7937005259841 28.5732189354276 17 mol bs 24987 units box remap yes rotate 0 0 0 1
Created 30 atoms
  create_atoms CPU = 0.0001073 secs
variable      check1 equal ${check}               # Count the new total number of atoms
variable      check1 equal 3098               
# Check that the molecule has indeed been inserted (This check is no longer an issue).
if            "${check1} != ${check0}" then "create_bonds  single/bond 2 ${randatomi} $b" "next i"
create_bonds  single/bond 2 ${randatomi} $b
create_bonds  single/bond 2 2815 $b
create_bonds  single/bond 2 2815 3069
  2 = max # of 1-2 neighbors
  5 = max # of special neighbors
  special bonds CPU = 0.0032792 secs
next i
jump MDPBB.in loop    # End of the loop
variable      randni equal round(random(1,${ntwall},$s))  # Pick a random "top" wall atom
variable      randni equal round(random(1,2888,$s))  
variable      randni equal round(random(1,2888,234897))  
variable      randatomi equal ${randni}                   # This is to obtain an integer number for atom-id
variable      randatomi equal 2092                   
variable      randzi equal z[${randatomi}]                # Determine the z coordinate of the chosen atom
variable      randzi equal z[2092]                
# if the chosen atom is not a surface atom then restart the loop
if            "${randzi} < $(v_wthick - 0.7)" then "jump MDPBB.in loop"
set           atom ${randatomi} type 4                    # Set this grafted wall atom as a new type
set           atom 2092 type 4                    
  1 settings made for type
group         twg id ${randatomi}                         # Add this atom to a top-wall-grafted group
group         twg id 2092                         
8 atoms in group twg
variable      twgcount equal count(twg)
print         "twg contains ${twgcount}"
twg contains 8
print         "i = $(v_i)"                                # The index i should always be equal to the number of atom in twg
i = 8
variable      x0 equal x[${randatomi}]                    # Determine its x-coord
variable      x0 equal x[2092]                    
variable      y0 equal y[${randatomi}]                    # Determine its y-coord
variable      y0 equal y[2092]                    
variable      check0 equal ${check}                       # Count the number of atoms in the simulation
variable      check0 equal 3098                       
variable      b equal ${check}+1                          # The grafted bead id will be one higher after being inserted
variable      b equal 3098+1                          
if            "${twgcount} != $(v_i)" then "jump MDPBB.in loop"
# Otherwise insert the chain directly above the chosen wall atom pointing perpendicular to the wall
create_atoms  1 single ${x0} ${y0} ${z0} mol bs 24987 units box remap yes rotate 0 0 0 1
create_atoms  1 single 14.2866094677138 ${y0} ${z0} mol bs 24987 units box remap yes rotate 0 0 0 1
create_atoms  1 single 14.2866094677138 13.4929089417297 ${z0} mol bs 24987 units box remap yes rotate 0 0 0 1
create_atoms  1 single 14.2866094677138 13.4929089417297 17 mol bs 24987 units box remap yes rotate 0 0 0 1
Created 30 atoms
  create_atoms CPU = 7.19e-05 secs
variable      check1 equal ${check}               # Count the new total number of atoms
variable      check1 equal 3128               
# Check that the molecule has indeed been inserted (This check is no longer an issue).
if            "${check1} != ${check0}" then "create_bonds  single/bond 2 ${randatomi} $b" "next i"
create_bonds  single/bond 2 ${randatomi} $b
create_bonds  single/bond 2 2092 $b
create_bonds  single/bond 2 2092 3099
  2 = max # of 1-2 neighbors
  5 = max # of special neighbors
  special bonds CPU = 0.0030118 secs
next i
jump MDPBB.in loop    # End of the loop
variable      randni equal round(random(1,${ntwall},$s))  # Pick a random "top" wall atom
variable      randni equal round(random(1,2888,$s))  
variable      randni equal round(random(1,2888,234897))  
variable      randatomi equal ${randni}                   # This is to obtain an integer number for atom-id
variable      randatomi equal 2713                   
variable      randzi equal z[${randatomi}]                # Determine the z coordinate of the chosen atom
variable      randzi equal z[2713]                
# if the chosen atom is not a surface atom then restart the loop
if            "${randzi} < $(v_wthick - 0.7)" then "jump MDPBB.in loop"
jump MDPBB.in loop
variable      randni equal round(random(1,${ntwall},$s))  # Pick a random "top" wall atom
variable      randni equal round(random(1,2888,$s))  
variable      randni equal round(random(1,2888,234897))  
variable      randatomi equal ${randni}                   # This is to obtain an integer number for atom-id
variable      randatomi equal 682                   
variable      randzi equal z[${randatomi}]                # Determine the z coordinate of the chosen atom
variable      randzi equal z[682]                
# if the chosen atom is not a surface atom then restart the loop
if            "${randzi} < $(v_wthick - 0.7)" then "jump MDPBB.in loop"
jump MDPBB.in loop
variable      randni equal round(random(1,${ntwall},$s))  # Pick a random "top" wall atom
variable      randni equal round(random(1,2888,$s))  
variable      randni equal round(random(1,2888,234897))  
variable      randatomi equal ${randni}                   # This is to obtain an integer number for atom-id
variable      randatomi equal 2694                   
variable      randzi equal z[${randatomi}]                # Determine the z coordinate of the chosen atom
variable      randzi equal z[2694]                
# if the chosen atom is not a surface atom then restart the loop
if            "${randzi} < $(v_wthick - 0.7)" then "jump MDPBB.in loop"
jump MDPBB.in loop
variable      randni equal round(random(1,${ntwall},$s))  # Pick a random "top" wall atom
variable      randni equal round(random(1,2888,$s))  
variable      randni equal round(random(1,2888,234897))  
variable      randatomi equal ${randni}                   # This is to obtain an integer number for atom-id
variable      randatomi equal 378                   
variable      randzi equal z[${randatomi}]                # Determine the z coordinate of the chosen atom
variable      randzi equal z[378]                
# if the chosen atom is not a surface atom then restart the loop
if            "${randzi} < $(v_wthick - 0.7)" then "jump MDPBB.in loop"
jump MDPBB.in loop
variable      randni equal round(random(1,${ntwall},$s))  # Pick a random "top" wall atom
variable      randni equal round(random(1,2888,$s))  
variable      randni equal round(random(1,2888,234897))  
variable      randatomi equal ${randni}                   # This is to obtain an integer number for atom-id
variable      randatomi equal 2456                   
variable      randzi equal z[${randatomi}]                # Determine the z coordinate of the chosen atom
variable      randzi equal z[2456]                
# if the chosen atom is not a surface atom then restart the loop
if            "${randzi} < $(v_wthick - 0.7)" then "jump MDPBB.in loop"
set           atom ${randatomi} type 4                    # Set this grafted wall atom as a new type
set           atom 2456 type 4                    
  1 settings made for type
group         twg id ${randatomi}                         # Add this atom to a top-wall-grafted group
group         twg id 2456                         
8 atoms in group twg
variable      twgcount equal count(twg)
print         "twg contains ${twgcount}"
twg contains 8
print         "i = $(v_i)"                                # The index i should always be equal to the number of atom in twg
i = 9
variable      x0 equal x[${randatomi}]                    # Determine its x-coord
variable      x0 equal x[2456]                    
variable      y0 equal y[${randatomi}]                    # Determine its y-coord
variable      y0 equal y[2456]                    
variable      check0 equal ${check}                       # Count the number of atoms in the simulation
variable      check0 equal 3128                       
variable      b equal ${check}+1                          # The grafted bead id will be one higher after being inserted
variable      b equal 3128+1                          
if            "${twgcount} != $(v_i)" then "jump MDPBB.in loop"
jump MDPBB.in loop
variable      randni equal round(random(1,${ntwall},$s))  # Pick a random "top" wall atom
variable      randni equal round(random(1,2888,$s))  
variable      randni equal round(random(1,2888,234897))  
variable      randatomi equal ${randni}                   # This is to obtain an integer number for atom-id
variable      randatomi equal 2698                   
variable      randzi equal z[${randatomi}]                # Determine the z coordinate of the chosen atom
variable      randzi equal z[2698]                
# if the chosen atom is not a surface atom then restart the loop
if            "${randzi} < $(v_wthick - 0.7)" then "jump MDPBB.in loop"
jump MDPBB.in loop
variable      randni equal round(random(1,${ntwall},$s))  # Pick a random "top" wall atom
variable      randni equal round(random(1,2888,$s))  
variable      randni equal round(random(1,2888,234897))  
variable      randatomi equal ${randni}                   # This is to obtain an integer number for atom-id
variable      randatomi equal 989                   
variable      randzi equal z[${randatomi}]                # Determine the z coordinate of the chosen atom
variable      randzi equal z[989]                
# if the chosen atom is not a surface atom then restart the loop
if            "${randzi} < $(v_wthick - 0.7)" then "jump MDPBB.in loop"
jump MDPBB.in loop
variable      randni equal round(random(1,${ntwall},$s))  # Pick a random "top" wall atom
variable      randni equal round(random(1,2888,$s))  
variable      randni equal round(random(1,2888,234897))  
variable      randatomi equal ${randni}                   # This is to obtain an integer number for atom-id
variable      randatomi equal 752                   
variable      randzi equal z[${randatomi}]                # Determine the z coordinate of the chosen atom
variable      randzi equal z[752]                
# if the chosen atom is not a surface atom then restart the loop
if            "${randzi} < $(v_wthick - 0.7)" then "jump MDPBB.in loop"
jump MDPBB.in loop
variable      randni equal round(random(1,${ntwall},$s))  # Pick a random "top" wall atom
variable      randni equal round(random(1,2888,$s))  
variable      randni equal round(random(1,2888,234897))  
variable      randatomi equal ${randni}                   # This is to obtain an integer number for atom-id
variable      randatomi equal 1918                   
variable      randzi equal z[${randatomi}]                # Determine the z coordinate of the chosen atom
variable      randzi equal z[1918]                
# if the chosen atom is not a surface atom then restart the loop
if            "${randzi} < $(v_wthick - 0.7)" then "jump MDPBB.in loop"
jump MDPBB.in loop
variable      randni equal round(random(1,${ntwall},$s))  # Pick a random "top" wall atom
variable      randni equal round(random(1,2888,$s))  
variable      randni equal round(random(1,2888,234897))  
variable      randatomi equal ${randni}                   # This is to obtain an integer number for atom-id
variable      randatomi equal 1347                   
variable      randzi equal z[${randatomi}]                # Determine the z coordinate of the chosen atom
variable      randzi equal z[1347]                
# if the chosen atom is not a surface atom then restart the loop
if            "${randzi} < $(v_wthick - 0.7)" then "jump MDPBB.in loop"
jump MDPBB.in loop
variable      randni equal round(random(1,${ntwall},$s))  # Pick a random "top" wall atom
variable      randni equal round(random(1,2888,$s))  
variable      randni equal round(random(1,2888,234897))  
variable      randatomi equal ${randni}                   # This is to obtain an integer number for atom-id
variable      randatomi equal 418                   
variable      randzi equal z[${randatomi}]                # Determine the z coordinate of the chosen atom
variable      randzi equal z[418]                
# if the chosen atom is not a surface atom then restart the loop
if            "${randzi} < $(v_wthick - 0.7)" then "jump MDPBB.in loop"
jump MDPBB.in loop
variable      randni equal round(random(1,${ntwall},$s))  # Pick a random "top" wall atom
variable      randni equal round(random(1,2888,$s))  
variable      randni equal round(random(1,2888,234897))  
variable      randatomi equal ${randni}                   # This is to obtain an integer number for atom-id
variable      randatomi equal 2659                   
variable      randzi equal z[${randatomi}]                # Determine the z coordinate of the chosen atom
variable      randzi equal z[2659]                
# if the chosen atom is not a surface atom then restart the loop
if            "${randzi} < $(v_wthick - 0.7)" then "jump MDPBB.in loop"
set           atom ${randatomi} type 4                    # Set this grafted wall atom as a new type
set           atom 2659 type 4                    
  1 settings made for type
group         twg id ${randatomi}                         # Add this atom to a top-wall-grafted group
group         twg id 2659                         
9 atoms in group twg
variable      twgcount equal count(twg)
print         "twg contains ${twgcount}"
twg contains 9
print         "i = $(v_i)"                                # The index i should always be equal to the number of atom in twg
i = 9
variable      x0 equal x[${randatomi}]                    # Determine its x-coord
variable      x0 equal x[2659]                    
variable      y0 equal y[${randatomi}]                    # Determine its y-coord
variable      y0 equal y[2659]                    
variable      check0 equal ${check}                       # Count the number of atoms in the simulation
variable      check0 equal 3128                       
variable      b equal ${check}+1                          # The grafted bead id will be one higher after being inserted
variable      b equal 3128+1                          
if            "${twgcount} != $(v_i)" then "jump MDPBB.in loop"
# Otherwise insert the chain directly above the chosen wall atom pointing perpendicular to the wall
create_atoms  1 single ${x0} ${y0} ${z0} mol bs 24987 units box remap yes rotate 0 0 0 1
create_atoms  1 single 29.3669194614117 ${y0} ${z0} mol bs 24987 units box remap yes rotate 0 0 0 1
create_atoms  1 single 29.3669194614117 23.811015779523 ${z0} mol bs 24987 units box remap yes rotate 0 0 0 1
create_atoms  1 single 29.3669194614117 23.811015779523 17 mol bs 24987 units box remap yes rotate 0 0 0 1
Created 30 atoms
  create_atoms CPU = 6.66e-05 secs
variable      check1 equal ${check}               # Count the new total number of atoms
variable      check1 equal 3158               
# Check that the molecule has indeed been inserted (This check is no longer an issue).
if            "${check1} != ${check0}" then "create_bonds  single/bond 2 ${randatomi} $b" "next i"
create_bonds  single/bond 2 ${randatomi} $b
create_bonds  single/bond 2 2659 $b
create_bonds  single/bond 2 2659 3129
  2 = max # of 1-2 neighbors
  5 = max # of special neighbors
  special bonds CPU = 0.0022015 secs
next i
jump MDPBB.in loop    # End of the loop
variable      randni equal round(random(1,${ntwall},$s))  # Pick a random "top" wall atom
variable      randni equal round(random(1,2888,$s))  
variable      randni equal round(random(1,2888,234897))  
variable      randatomi equal ${randni}                   # This is to obtain an integer number for atom-id
variable      randatomi equal 2763                   
variable      randzi equal z[${randatomi}]                # Determine the z coordinate of the chosen atom
variable      randzi equal z[2763]                
# if the chosen atom is not a surface atom then restart the loop
if            "${randzi} < $(v_wthick - 0.7)" then "jump MDPBB.in loop"
set           atom ${randatomi} type 4                    # Set this grafted wall atom as a new type
set           atom 2763 type 4                    
  1 settings made for type
group         twg id ${randatomi}                         # Add this atom to a top-wall-grafted group
group         twg id 2763                         
10 atoms in group twg
variable      twgcount equal count(twg)
print         "twg contains ${twgcount}"
twg contains 10
print         "i = $(v_i)"                                # The index i should always be equal to the number of atom in twg
i = 10
variable      x0 equal x[${randatomi}]                    # Determine its x-coord
variable      x0 equal x[2763]                    
variable      y0 equal y[${randatomi}]                    # Determine its y-coord
variable      y0 equal y[2763]                    
variable      check0 equal ${check}                       # Count the number of atoms in the simulation
variable      check0 equal 3158                       
variable      b equal ${check}+1                          # The grafted bead id will be one higher after being inserted
variable      b equal 3158+1                          
if            "${twgcount} != $(v_i)" then "jump MDPBB.in loop"
# Otherwise insert the chain directly above the chosen wall atom pointing perpendicular to the wall
create_atoms  1 single ${x0} ${y0} ${z0} mol bs 24987 units box remap yes rotate 0 0 0 1
create_atoms  1 single 10.3181068377933 ${y0} ${z0} mol bs 24987 units box remap yes rotate 0 0 0 1
create_atoms  1 single 10.3181068377933 26.9858178834594 ${z0} mol bs 24987 units box remap yes rotate 0 0 0 1
create_atoms  1 single 10.3181068377933 26.9858178834594 17 mol bs 24987 units box remap yes rotate 0 0 0 1
Created 30 atoms
  create_atoms CPU = 0.0001007 secs
variable      check1 equal ${check}               # Count the new total number of atoms
variable      check1 equal 3188               
# Check that the molecule has indeed been inserted (This check is no longer an issue).
if            "${check1} != ${check0}" then "create_bonds  single/bond 2 ${randatomi} $b" "next i"
create_bonds  single/bond 2 ${randatomi} $b
create_bonds  single/bond 2 2763 $b
create_bonds  single/bond 2 2763 3159
  2 = max # of 1-2 neighbors
  5 = max # of special neighbors
  special bonds CPU = 0.0032004 secs
next i
jump MDPBB.in loop    # End of the loop
variable      randni equal round(random(1,${ntwall},$s))  # Pick a random "top" wall atom
variable      randni equal round(random(1,2888,$s))  
variable      randni equal round(random(1,2888,234897))  
variable      randatomi equal ${randni}                   # This is to obtain an integer number for atom-id
variable      randatomi equal 2611                   
variable      randzi equal z[${randatomi}]                # Determine the z coordinate of the chosen atom
variable      randzi equal z[2611]                
# if the chosen atom is not a surface atom then restart the loop
if            "${randzi} < $(v_wthick - 0.7)" then "jump MDPBB.in loop"
set           atom ${randatomi} type 4                    # Set this grafted wall atom as a new type
set           atom 2611 type 4                    
  1 settings made for type
group         twg id ${randatomi}                         # Add this atom to a top-wall-grafted group
group         twg id 2611                         
11 atoms in group twg
variable      twgcount equal count(twg)
print         "twg contains ${twgcount}"
twg contains 11
print         "i = $(v_i)"                                # The index i should always be equal to the number of atom in twg
i = 11
variable      x0 equal x[${randatomi}]                    # Determine its x-coord
variable      x0 equal x[2611]                    
variable      y0 equal y[${randatomi}]                    # Determine its y-coord
variable      y0 equal y[2611]                    
variable      check0 equal ${check}                       # Count the number of atoms in the simulation
variable      check0 equal 3188                       
variable      b equal ${check}+1                          # The grafted bead id will be one higher after being inserted
variable      b equal 3188+1                          
if            "${twgcount} != $(v_i)" then "jump MDPBB.in loop"
# Otherwise insert the chain directly above the chosen wall atom pointing perpendicular to the wall
create_atoms  1 single ${x0} ${y0} ${z0} mol bs 24987 units box remap yes rotate 0 0 0 1
create_atoms  1 single 10.3181068377933 ${y0} ${z0} mol bs 24987 units box remap yes rotate 0 0 0 1
create_atoms  1 single 10.3181068377933 23.811015779523 ${z0} mol bs 24987 units box remap yes rotate 0 0 0 1
create_atoms  1 single 10.3181068377933 23.811015779523 17 mol bs 24987 units box remap yes rotate 0 0 0 1
Created 30 atoms
  create_atoms CPU = 7.29e-05 secs
variable      check1 equal ${check}               # Count the new total number of atoms
variable      check1 equal 3218               
# Check that the molecule has indeed been inserted (This check is no longer an issue).
if            "${check1} != ${check0}" then "create_bonds  single/bond 2 ${randatomi} $b" "next i"
create_bonds  single/bond 2 ${randatomi} $b
create_bonds  single/bond 2 2611 $b
create_bonds  single/bond 2 2611 3189
  2 = max # of 1-2 neighbors
  5 = max # of special neighbors
  special bonds CPU = 0.0028857 secs
next i
jump MDPBB.in loop    # End of the loop
variable      randni equal round(random(1,${ntwall},$s))  # Pick a random "top" wall atom
variable      randni equal round(random(1,2888,$s))  
variable      randni equal round(random(1,2888,234897))  
variable      randatomi equal ${randni}                   # This is to obtain an integer number for atom-id
variable      randatomi equal 2302                   
variable      randzi equal z[${randatomi}]                # Determine the z coordinate of the chosen atom
variable      randzi equal z[2302]                
# if the chosen atom is not a surface atom then restart the loop
if            "${randzi} < $(v_wthick - 0.7)" then "jump MDPBB.in loop"
jump MDPBB.in loop
variable      randni equal round(random(1,${ntwall},$s))  # Pick a random "top" wall atom
variable      randni equal round(random(1,2888,$s))  
variable      randni equal round(random(1,2888,234897))  
variable      randatomi equal ${randni}                   # This is to obtain an integer number for atom-id
variable      randatomi equal 1267                   
variable      randzi equal z[${randatomi}]                # Determine the z coordinate of the chosen atom
variable      randzi equal z[1267]                
# if the chosen atom is not a surface atom then restart the loop
if            "${randzi} < $(v_wthick - 0.7)" then "jump MDPBB.in loop"
jump MDPBB.in loop
variable      randni equal round(random(1,${ntwall},$s))  # Pick a random "top" wall atom
variable      randni equal round(random(1,2888,$s))  
variable      randni equal round(random(1,2888,234897))  
variable      randatomi equal ${randni}                   # This is to obtain an integer number for atom-id
variable      randatomi equal 1072                   
variable      randzi equal z[${randatomi}]                # Determine the z coordinate of the chosen atom
variable      randzi equal z[1072]                
# if the chosen atom is not a surface atom then restart the loop
if            "${randzi} < $(v_wthick - 0.7)" then "jump MDPBB.in loop"
jump MDPBB.in loop
variable      randni equal round(random(1,${ntwall},$s))  # Pick a random "top" wall atom
variable      randni equal round(random(1,2888,$s))  
variable      randni equal round(random(1,2888,234897))  
variable      randatomi equal ${randni}                   # This is to obtain an integer number for atom-id
variable      randatomi equal 2025                   
variable      randzi equal z[${randatomi}]                # Determine the z coordinate of the chosen atom
variable      randzi equal z[2025]                
# if the chosen atom is not a surface atom then restart the loop
if            "${randzi} < $(v_wthick - 0.7)" then "jump MDPBB.in loop"
jump MDPBB.in loop
variable      randni equal round(random(1,${ntwall},$s))  # Pick a random "top" wall atom
variable      randni equal round(random(1,2888,$s))  
variable      randni equal round(random(1,2888,234897))  
variable      randatomi equal ${randni}                   # This is to obtain an integer number for atom-id
variable      randatomi equal 271                   
variable      randzi equal z[${randatomi}]                # Determine the z coordinate of the chosen atom
variable      randzi equal z[271]                
# if the chosen atom is not a surface atom then restart the loop
if            "${randzi} < $(v_wthick - 0.7)" then "jump MDPBB.in loop"
jump MDPBB.in loop
variable      randni equal round(random(1,${ntwall},$s))  # Pick a random "top" wall atom
variable      randni equal round(random(1,2888,$s))  
variable      randni equal round(random(1,2888,234897))  
variable      randatomi equal ${randni}                   # This is to obtain an integer number for atom-id
variable      randatomi equal 1094                   
variable      randzi equal z[${randatomi}]                # Determine the z coordinate of the chosen atom
variable      randzi equal z[1094]                
# if the chosen atom is not a surface atom then restart the loop
if            "${randzi} < $(v_wthick - 0.7)" then "jump MDPBB.in loop"
jump MDPBB.in loop
variable      randni equal round(random(1,${ntwall},$s))  # Pick a random "top" wall atom
variable      randni equal round(random(1,2888,$s))  
variable      randni equal round(random(1,2888,234897))  
variable      randatomi equal ${randni}                   # This is to obtain an integer number for atom-id
variable      randatomi equal 1260                   
variable      randzi equal z[${randatomi}]                # Determine the z coordinate of the chosen atom
variable      randzi equal z[1260]                
# if the chosen atom is not a surface atom then restart the loop
if            "${randzi} < $(v_wthick - 0.7)" then "jump MDPBB.in loop"
jump MDPBB.in loop
variable      randni equal round(random(1,${ntwall},$s))  # Pick a random "top" wall atom
variable      randni equal round(random(1,2888,$s))  
variable      randni equal round(random(1,2888,234897))  
variable      randatomi equal ${randni}                   # This is to obtain an integer number for atom-id
variable      randatomi equal 949                   
variable      randzi equal z[${randatomi}]                # Determine the z coordinate of the chosen atom
variable      randzi equal z[949]                
# if the chosen atom is not a surface atom then restart the loop
if            "${randzi} < $(v_wthick - 0.7)" then "jump MDPBB.in loop"
jump MDPBB.in loop
variable      randni equal round(random(1,${ntwall},$s))  # Pick a random "top" wall atom
variable      randni equal round(random(1,2888,$s))  
variable      randni equal round(random(1,2888,234897))  
variable      randatomi equal ${randni}                   # This is to obtain an integer number for atom-id
variable      randatomi equal 1761                   
variable      randzi equal z[${randatomi}]                # Determine the z coordinate of the chosen atom
variable      randzi equal z[1761]                
# if the chosen atom is not a surface atom then restart the loop
if            "${randzi} < $(v_wthick - 0.7)" then "jump MDPBB.in loop"
jump MDPBB.in loop
variable      randni equal round(random(1,${ntwall},$s))  # Pick a random "top" wall atom
variable      randni equal round(random(1,2888,$s))  
variable      randni equal round(random(1,2888,234897))  
variable      randatomi equal ${randni}                   # This is to obtain an integer number for atom-id
variable      randatomi equal 827                   
variable      randzi equal z[${randatomi}]                # Determine the z coordinate of the chosen atom
variable      randzi equal z[827]                
# if the chosen atom is not a surface atom then restart the loop
if            "${randzi} < $(v_wthick - 0.7)" then "jump MDPBB.in loop"
jump MDPBB.in loop
variable      randni equal round(random(1,${ntwall},$s))  # Pick a random "top" wall atom
variable      randni equal round(random(1,2888,$s))  
variable      randni equal round(random(1,2888,234897))  
variable      randatomi equal ${randni}                   # This is to obtain an integer number for atom-id
variable      randatomi equal 688                   
variable      randzi equal z[${randatomi}]                # Determine the z coordinate of the chosen atom
variable      randzi equal z[688]                
# if the chosen atom is not a surface atom then restart the loop
if            "${randzi} < $(v_wthick - 0.7)" then "jump MDPBB.in loop"
jump MDPBB.in loop
variable      randni equal round(random(1,${ntwall},$s))  # Pick a random "top" wall atom
variable      randni equal round(random(1,2888,$s))  
variable      randni equal round(random(1,2888,234897))  
variable      randatomi equal ${randni}                   # This is to obtain an integer number for atom-id
variable      randatomi equal 248                   
variable      randzi equal z[${randatomi}]                # Determine the z coordinate of the chosen atom
variable      randzi equal z[248]                
# if the chosen atom is not a surface atom then restart the loop
if            "${randzi} < $(v_wthick - 0.7)" then "jump MDPBB.in loop"
jump MDPBB.in loop
variable      randni equal round(random(1,${ntwall},$s))  # Pick a random "top" wall atom
variable      randni equal round(random(1,2888,$s))  
variable      randni equal round(random(1,2888,234897))  
variable      randatomi equal ${randni}                   # This is to obtain an integer number for atom-id
variable      randatomi equal 1966                   
variable      randzi equal z[${randatomi}]                # Determine the z coordinate of the chosen atom
variable      randzi equal z[1966]                
# if the chosen atom is not a surface atom then restart the loop
if            "${randzi} < $(v_wthick - 0.7)" then "jump MDPBB.in loop"
jump MDPBB.in loop
variable      randni equal round(random(1,${ntwall},$s))  # Pick a random "top" wall atom
variable      randni equal round(random(1,2888,$s))  
variable      randni equal round(random(1,2888,234897))  
variable      randatomi equal ${randni}                   # This is to obtain an integer number for atom-id
variable      randatomi equal 2118                   
variable      randzi equal z[${randatomi}]                # Determine the z coordinate of the chosen atom
variable      randzi equal z[2118]                
# if the chosen atom is not a surface atom then restart the loop
if            "${randzi} < $(v_wthick - 0.7)" then "jump MDPBB.in loop"
jump MDPBB.in loop
variable      randni equal round(random(1,${ntwall},$s))  # Pick a random "top" wall atom
variable      randni equal round(random(1,2888,$s))  
variable      randni equal round(random(1,2888,234897))  
variable      randatomi equal ${randni}                   # This is to obtain an integer number for atom-id
variable      randatomi equal 973                   
variable      randzi equal z[${randatomi}]                # Determine the z coordinate of the chosen atom
variable      randzi equal z[973]                
# if the chosen atom is not a surface atom then restart the loop
if            "${randzi} < $(v_wthick - 0.7)" then "jump MDPBB.in loop"
jump MDPBB.in loop
variable      randni equal round(random(1,${ntwall},$s))  # Pick a random "top" wall atom
variable      randni equal round(random(1,2888,$s))  
variable      randni equal round(random(1,2888,234897))  
variable      randatomi equal ${randni}                   # This is to obtain an integer number for atom-id
variable      randatomi equal 1444                   
variable      randzi equal z[${randatomi}]                # Determine the z coordinate of the chosen atom
variable      randzi equal z[1444]                
# if the chosen atom is not a surface atom then restart the loop
if            "${randzi} < $(v_wthick - 0.7)" then "jump MDPBB.in loop"
jump MDPBB.in loop
variable      randni equal round(random(1,${ntwall},$s))  # Pick a random "top" wall atom
variable      randni equal round(random(1,2888,$s))  
variable      randni equal round(random(1,2888,234897))  
variable      randatomi equal ${randni}                   # This is to obtain an integer number for atom-id
variable      randatomi equal 1243                   
variable      randzi equal z[${randatomi}]                # Determine the z coordinate of the chosen atom
variable      randzi equal z[1243]                
# if the chosen atom is not a surface atom then restart the loop
if            "${randzi} < $(v_wthick - 0.7)" then "jump MDPBB.in loop"
jump MDPBB.in loop
variable      randni equal round(random(1,${ntwall},$s))  # Pick a random "top" wall atom
variable      randni equal round(random(1,2888,$s))  
variable      randni equal round(random(1,2888,234897))  
variable      randatomi equal ${randni}                   # This is to obtain an integer number for atom-id
variable      randatomi equal 654                   
variable      randzi equal z[${randatomi}]                # Determine the z coordinate of the chosen atom
variable      randzi equal z[654]                
# if the chosen atom is not a surface atom then restart the loop
if            "${randzi} < $(v_wthick - 0.7)" then "jump MDPBB.in loop"
jump MDPBB.in loop
variable      randni equal round(random(1,${ntwall},$s))  # Pick a random "top" wall atom
variable      randni equal round(random(1,2888,$s))  
variable      randni equal round(random(1,2888,234897))  
variable      randatomi equal ${randni}                   # This is to obtain an integer number for atom-id
variable      randatomi equal 1674                   
variable      randzi equal z[${randatomi}]                # Determine the z coordinate of the chosen atom
variable      randzi equal z[1674]                
# if the chosen atom is not a surface atom then restart the loop
if            "${randzi} < $(v_wthick - 0.7)" then "jump MDPBB.in loop"
jump MDPBB.in loop
variable      randni equal round(random(1,${ntwall},$s))  # Pick a random "top" wall atom
variable      randni equal round(random(1,2888,$s))  
variable      randni equal round(random(1,2888,234897))  
variable      randatomi equal ${randni}                   # This is to obtain an integer number for atom-id
variable      randatomi equal 528                   
variable      randzi equal z[${randatomi}]                # Determine the z coordinate of the chosen atom
variable      randzi equal z[528]                
# if the chosen atom is not a surface atom then restart the loop
[...]
 1959000    4.1620293    1.2664491    2.8955802  -0.22551787   0.84438948   0.98475748   0.75705787   -1.2465374            1     1.599212    2.2036629    2.2002872   0.39368597  0.013921374   0.18432922 -0.075263022    1.4394348    1.4696896   0.70528808  0.066666667    1.4217479        1e-10 1.7632202e-11    5.6714414    2.4904773    30.403515 0.0059769902  -0.21299014 -0.012407883   0.22364363  -0.97478448  0.020558355 
 1960000    4.1614167    1.2695295    2.8918873  -0.21224411   0.84644326   0.99098087    0.7565135   -1.2465374            1    1.6102283    2.2048942    2.2543956    0.3713951 0.0043471233  0.078777942 0.0029526026     1.450566    1.4798874    0.7066777  0.066666667    1.4400339        1e-10 1.7666943e-11     5.660289     2.484511    30.403515 0.0062556962  -0.18129649 0.0059309763   0.19423775   -1.3557595    1.6731105 
 1961000    4.1424106     1.258674    2.8837366  -0.22480134   0.83920554    1.0104055   0.73265845   -1.2465374            1    1.4521674    2.1203849    2.0810884   0.15502891  0.017343851 -0.0062217578 -0.050280729    1.2975397    1.3192716   0.71312646  0.066666667    1.4329346        1e-10 1.7828161e-11    5.6091034    2.5040978    30.403515 -0.0060705311  -0.19452394 -0.021480311   0.20872327  -0.51817763    0.6066604 
 1962000    4.1629036    1.2668975    2.8960061  -0.22105649   0.84468843    1.0067624   0.74382964   -1.2465374            1    1.5348948    2.1527093     2.170683   0.28129225 -0.024934148  0.012819621 -0.046105948    1.3779095    1.4024782   0.70574649  0.066666667    1.4479682        1e-10 1.7643662e-11    5.6677576    2.4927691    30.403515 0.0085566927  -0.20229006 -0.00013369361   0.17963019   -1.5180511    1.5188186 
 1963000    4.1355732    1.2664596    2.8691136  -0.21735271   0.84439645    1.0027735   0.74584155   -1.2465374            1    1.6689888    2.2948504    2.2480419   0.46407402 -0.0043724163  -0.12661509  0.055863115    1.5115788    1.5370968   0.71675073  0.066666667    1.4568262        1e-10 1.7918768e-11    5.5807408    2.5098834    30.403515 -0.013405464  -0.19635936 -0.0097908332   0.21306852    1.2741088    4.4120351 
 1964000    4.1063822    1.2435918    2.8627904  -0.22487105   0.82914966   0.98886454   0.72975837   -1.2465374            1    1.5788912    2.1899924    2.1910616   0.35561956 -0.016056974    -0.114318  0.044451252    1.4248756    1.4488286   0.70776134  0.066666667    1.4530465        1e-10 1.7694034e-11    5.6516226    2.4927077    30.403515 -0.0051517187  -0.19873857 0.0028441779   0.19283624    1.6589432    4.1400428 
 1965000    4.1263493    1.2460803    2.8802689  -0.20594149   0.83080883   0.98170649   0.73691275   -1.2465374            1    1.6626499    2.2572277    2.2930611   0.43766081  0.004783575 -0.068884107  0.016753785    1.5071243    1.5335288    0.7068258  0.066666667     1.448228        1e-10 1.7670645e-11     5.659103    2.4910403    30.403515 -0.0078719838   -0.2122423 -0.0055590216   0.22236712   0.88506259    1.9862201 
 1966000    4.1446464    1.2688397    2.8758067  -0.22800537   0.84598338   0.99642408   0.75237471   -1.2465374            1    1.6378801    2.2429917    2.2558277   0.41482102 -0.013634602  0.019176556 0.0062683986    1.4790913    1.5068233   0.70565523  0.066666667    1.4176656        1e-10 1.7641381e-11    5.6684906    2.4839962    30.403515 0.0081415595  -0.18568662  0.010557049   0.20408512   0.70335695    2.9274595 
 1967000    4.1590919    1.2596337    2.8994582  -0.21362811   0.83984538    1.0021598   0.73883593   -1.2465374            1    1.5460228     2.172565    2.1688256   0.29667781 -0.0025185668   0.10696764 -0.010263475    1.3900914    1.4142115   0.70432757  0.066666667    1.4398411        1e-10 1.7608189e-11    5.6791757     2.490231    30.403515 -0.003147797  -0.19265045 0.0081034669   0.18280022  -0.97535029    1.3223902 
 1968000    4.1611668    1.2528383    2.9083284  -0.21420945   0.83531464   0.98849817   0.73999478   -1.2465374            1    1.5809367    2.1787504    2.2089931    0.3550665 -0.0045485354   0.15624335 -0.00095384713    1.4247606    1.4509223   0.70463385  0.066666667     1.435571        1e-10 1.7615846e-11    5.6767071    2.5025067    30.403515 -0.0076137153  -0.14589456  0.010418996   0.17808496   -1.4013615    1.6743803 
 1969000    4.1254911    1.2531168    2.8723743  -0.22845114    0.8355003    1.0082018   0.72801682   -1.2465374            1    1.5189802    2.1616064    2.1562575   0.23907683 0.0032375698  0.020390877 -0.030268269    1.3653322    1.3863743   0.70706753  0.066666667    1.4433295        1e-10 1.7676688e-11    5.6571683     2.483688    30.403515  0.017158325  -0.16345316 -0.0027910731   0.19269391    0.9432633    -1.751309 
 1970000    4.1429687    1.2634487      2.87952  -0.21853544   0.84238896     1.011757   0.73698408   -1.2465374            1    1.5346011    2.1560677     2.160283   0.28745266 0.0018271152  -0.10714945  0.067211335    1.3790605    1.4015276   0.70556387  0.066666667    1.4481499        1e-10 1.7639097e-11    5.6692246    2.4810134    30.403515 -0.0058000189  -0.19950525  0.001478787   0.16898803    1.0232548    2.8374465 
 1971000    4.1755813    1.2782859    2.8972955  -0.21367498   0.85228147    1.0129131   0.75232286   -1.2465374            1    1.6153103    2.2210219    2.2459259   0.37898317 -0.0070428507 -0.063824645   0.01561011    1.4565324    1.4820847   0.70855181  0.066666667    1.4281029        1e-10 1.7713795e-11    5.6453176    2.5104696    30.403515 -0.0019113144   -0.1955666 0.0065977328   0.19304696    1.1371057    1.8464887 
 1972000    4.1644823    1.2773703    2.8871119  -0.21673243   0.85167107    1.0098798    0.7532223   -1.2465374            1    1.6528017    2.2565965    2.2549618    0.4468469 -0.0017266957 -0.0074597352  0.086478063     1.493834    1.5199751   0.70839881  0.066666667    1.4396684        1e-10 1.770997e-11    5.6465369    2.5036563    30.403515  -0.00760986  -0.26018273 0.0042379867   0.18380311  -0.89041027   0.59353454 
 1973000    4.1840311    1.2950503    2.8889808  -0.21047597   0.86345896    1.0038851   0.77609444   -1.2465374            1     1.666993    2.2767586    2.2705275   0.45369283 -0.019468445 -0.048209107  0.026017034    1.5031981    1.5349548   0.70266324  0.066666667    1.4263032        1e-10 1.7566581e-11    5.6926274    2.4774174    30.403515 0.0053828279   -0.1906589 -0.008178719   0.21521909   -1.1702674  -0.60374055 
 1974000     4.182928    1.2910941    2.8918339  -0.21495664   0.86082123    0.9964469   0.77644791   -1.2465374            1    1.5667444    2.1975891    2.1796347   0.32300942  0.020354586  0.023855582 0.0003805966     1.402875    1.4356846   0.70163397  0.066666667     1.420866        1e-10 1.7540849e-11    5.7009783     2.481855    30.403515 -0.00029644491  -0.19546977 0.0099366622   0.17073658   -3.1562322   -2.1691668 
 1975000    4.2008744    1.2692964     2.931578  -0.21323668   0.84628787   0.99093554   0.75628949   -1.2465374            1    1.6266113    2.2222498    2.2480558   0.40952839 -0.019302991  0.029272524 -0.010376825    1.4669963    1.4962764   0.70301742  0.066666667    1.4237594        1e-10 1.7575436e-11    5.6897594    2.4767191    30.403515  0.005856395  -0.21093254 -0.0016321228   0.18016128   -2.7994958   0.98694151 
 1976000     4.174233    1.2747263    2.8995067  -0.21658668   0.84990818    1.0174461   0.74564515   -1.2465374            1     1.599071    2.2301847    2.2062063   0.36082206  0.019417814 -0.010674855 -0.0053271769    1.4417025    1.4652492   0.70170039  0.066666667    1.4043385        1e-10 1.754251e-11    5.7004386    2.4807163    30.403515  0.003232097  -0.22032127 -0.0093331301   0.21347733   0.97571776 -0.0052877788 
 1977000    4.1594131     1.280729    2.8786842  -0.22457859   0.85391039    1.0299052   0.74437766   -1.2465374            1    1.5853994    2.2088748    2.2195344   0.32778902  0.021562676 -0.026032657   0.04200537    1.4282984    1.4499389   0.70231461  0.066666667    1.3810045        1e-10 1.7557865e-11    5.6954532    2.4837649    30.403515 -0.0030241772  -0.17913457 -0.00057267072   0.19560801  -0.75200101     3.531807 
 1978000    4.1678457    1.2702107     2.897635  -0.21719115   0.84689747    1.0270239   0.73478867   -1.2465374            1    1.5604873    2.1844525    2.1898731   0.30713627 -0.003881086  0.035017323 -0.018519675      1.40541    1.4254057   0.69906987  0.066666667    1.3839858        1e-10 1.7476747e-11    5.7218887    2.4818591    30.403515 -0.011027477   -0.2018967 0.0022642567   0.16771114  -0.97740494    3.1606357 
 1979000    4.1500544    1.2517447    2.8983097  -0.21050136   0.83458548     1.020651   0.71877332   -1.2465374            1    1.5171371    2.1488986    2.1312415   0.27127133 -0.014294156  0.031147944 -0.0041210798    1.3654399    1.3828938   0.69344386  0.066666667    1.3949113        1e-10 1.7336097e-11    5.7683112    2.4942453    30.403515 -0.022267819  -0.21347586 0.0097457305   0.17123295  0.083386769  -0.40457028 
 1980000    4.1706717    1.2784021    2.8922696  -0.21602606   0.85235898     1.024349   0.74532181   -1.2465374            1     1.463433    2.1125042    2.1243336   0.15346109 0.0043058613 -0.066746483  0.026058626    1.3061327    1.3287032   0.70190091  0.066666667    1.4111941        1e-10 1.7547523e-11    5.6988101    2.4941692    30.403515 -0.018193439  -0.21557828 -0.0079860698   0.17487155   0.90498793    3.0607108 
 1981000    4.1962435    1.2913697    2.9048737  -0.22173372   0.86100498    1.0319765     0.754604   -1.2465374            1    1.6226381    2.2244943    2.2438965   0.39952339 -0.0046417541   0.02543227 0.0021523632    1.4633788    1.4869051   0.71336263  0.066666667    1.4196023        1e-10 1.7834066e-11    5.6072463     2.485834    30.403515 -0.011051381   -0.1725345  0.011960972   0.18061984    1.0131476    1.1695394 
 1982000    4.1860581    1.2765274    2.9095308  -0.21625946   0.85110903    1.0126591   0.75057784   -1.2465374            1    1.4198533    2.0751443    2.0848082  0.099607267 0.0028707188  0.080609931  0.041776968    1.2614437     1.286661   0.70823459  0.066666667    1.4224289        1e-10 1.7705865e-11    5.6478462    2.5153508    30.403515 -0.0033233438  -0.20653392 -0.0058775942   0.23838586   0.67437229    3.1052435 
 1983000    4.1572861    1.2728017    2.8844844  -0.22770939   0.84862496   0.99901017   0.75505133   -1.2465374            1    1.6803065    2.2723289    2.2856016   0.48298903    -0.023626  0.059527324  0.083120216    1.5209528    1.5489095   0.69562795  0.066666667    1.4212817        1e-10 1.7390699e-11    5.7502002    2.4985846    30.403515 0.0044637358  -0.16073758 0.0054262325   0.19874985  -0.43865782    2.9292978 
 1984000    4.1520646     1.265781    2.8862837  -0.20881761   0.84394398      0.99617   0.74922234   -1.2465374            1    1.6920009    2.2838953    2.3065076   0.48559968 0.0076339715   -0.0114382 -0.029658774    1.5338774    1.5609774   0.70561226  0.066666667    1.4105024        1e-10 1.7640307e-11    5.6688357    2.4969649    30.403515  0.025730252  -0.18775237 -0.0081321624    0.1812612   0.23951751    2.1296197 
 1985000    4.1403749    1.2637416    2.8766334  -0.22222979   0.84258424     1.038998    0.7203244   -1.2465374            1    1.5381753    2.1730845    2.1610485   0.28039285 0.0011010013 0.0026787673 -0.0017367938    1.3861507    1.4015188    0.7183054  0.066666667    1.4090797        1e-10 1.7957635e-11     5.568662    2.5236283    30.403515 -0.0027460507   -0.2256711 0.0014473723    0.1941686   -1.0018046    3.3974998 
 1986000    4.1664243    1.2661083    2.9003159  -0.22187096   0.84416226    1.0031183    0.7452465   -1.2465374            1    1.6366267    2.2334295    2.2487347   0.42771593 -0.0094931974  0.013420847 -0.013674223    1.4793423    1.5046894   0.70098888  0.066666667     1.362915        1e-10 1.7524722e-11    5.7062246    2.4766645    30.403515 0.00036645692  -0.18238396 -0.0091806268    0.1744532   -1.1562018    3.0480125 
 1987000     4.157517    1.2811128    2.8764042  -0.21949557   0.85416629   0.99659767   0.76555046   -1.2465374            1    1.4584389    2.1159605    2.1098036   0.14955246 -0.0067710792  0.019856082 0.0075414195    1.2968693    1.3273592   0.69175238  0.066666667    1.3662666        1e-10 1.729381e-11    5.7824159    2.4977471    30.403515 -0.0079850245  -0.22323047 -0.00066875786   0.19244533  -0.87566477   -1.3213448 
 1988000    4.1777505    1.2829756    2.8947749  -0.21885225   0.85540833   0.99857314   0.76633565   -1.2465374            1    1.6722168    2.2498459    2.2917148   0.47508969 0.0040392062 -0.076691453 -0.012224142    1.5104815    1.5408773   0.70543347  0.066666667    1.3804236        1e-10 1.7635837e-11    5.6702725    2.4898242    30.403515 0.0046346769  -0.17794349 0.0069404842   0.21222782   0.63502286    1.0730336 
 1989000     4.169071    1.2753324    2.8937386  -0.22349705    0.8503123      1.00241   0.75567172   -1.2465374            1    1.5535784    2.1741446     2.186217   0.30037355 0.00072297747 0.0036919267 -0.041768307    1.3940938    1.4217342   0.70837909  0.066666667    1.3913392        1e-10 1.7709477e-11    5.6466941    2.4801661    30.403515 -0.010597219  -0.17008158 -0.0068015273   0.18129643   0.14528909   0.38820935 
 1990000    4.1602541    1.2455236    2.9147305  -0.20523377   0.83043764   0.99158094   0.73015638   -1.2465374            1    1.5339901    2.1422922    2.1877124   0.27196567 0.0055228033 -0.052231058 -0.040706225    1.3798905    1.4035702   0.70112093  0.066666667    1.3993084        1e-10 1.7528023e-11    5.7051499    2.4749709    30.403515  0.025452601  -0.18166746  0.005073592   0.20698722   -1.2833761    1.7536884 
 1991000    4.1857646    1.2765915     2.909173  -0.21283171    0.8511518    1.0022512   0.75713348   -1.2465374            1    1.5583922    2.1989771    2.1762116   0.29998774  0.019441764 -0.099654865  0.070641132     1.398599    1.4265689   0.70265806  0.066666667    1.3836692        1e-10 1.7566451e-11    5.6926694    2.4880482    30.403515 0.0056202944  -0.18872454  0.015066931   0.19896861    1.3587444    3.2879187 
 1992000    4.1669733    1.2730412     2.893932  -0.21562709   0.84878469     1.023914   0.73979045   -1.2465374            1    1.6133407     2.216477     2.231834   0.39171109 -0.0075988593 -0.014003004 -0.010761806    1.4572078    1.4786682   0.70414095  0.066666667    1.3764553        1e-10 1.7603524e-11    5.6806808    2.4766496    30.403515 -0.017641829  -0.19514992 -0.0026438842   0.20751049    2.0625326    2.8356355 
 1993000    4.1969459    1.2707556    2.9261903  -0.21336883   0.84726079     1.019864   0.73984059   -1.2465374            1    1.5748445    2.1843827    2.2007907   0.33936016 -0.0042391916  0.041432005  0.018506555     1.418701    1.4407047   0.70678958  0.066666667    1.3626186        1e-10 1.7669739e-11     5.659393    2.5061913    30.403515 0.0029974839  -0.16214249 0.0049744742   0.17922689   0.43928575  0.031210184 
 1994000    4.1923675     1.287159    2.9052085  -0.21840687   0.85819751    1.0175272   0.75905133   -1.2465374            1    1.6731393    2.2664678    2.2905816   0.46236859  0.010376065   0.09435713  0.093371512    1.5129414    1.5393069   0.70323202  0.066666667    1.3513585        1e-10 1.7580801e-11    5.6880231    2.4828581    30.403515 -0.0040340898  -0.20664777  0.024962732   0.20346301  0.045626252 -0.042984491 
 1995000     4.213527     1.275103     2.938424  -0.21576939   0.85015934    1.0108464   0.75016584   -1.2465374            1    1.5369969    2.1859139        2.138   0.28707686 -0.0072231157  0.077129272 -0.015067624    1.3786743    1.4040431   0.70010917  0.066666667    1.3470086        1e-10 1.7502729e-11    5.7133946    2.4784517    30.403515 -0.00032731339  -0.19779125 0.0084877681   0.19342174   -0.4357175   0.25248948 
 1996000    4.1902796    1.2730349    2.9172448  -0.21580138   0.84878043     1.000781   0.75420011   -1.2465374            1    1.5942696    2.2050187    2.2153493   0.36244074 -0.0059707878 -0.0064642784  0.019738517    1.4350955    1.4626397   0.70063047  0.066666667     1.345782        1e-10 1.7515762e-11    5.7091436    2.4924324    30.403515 -0.0012133984  -0.18187044  0.010521621   0.18585839  -0.26516508   0.34697611 
 1997000    4.1584493    1.2754821    2.8829672   -0.2147577   0.85041213    1.0028716   0.75554614   -1.2465374            1    1.6661107    2.2728185    2.2606502   0.46486345 -0.0078558395 -0.098443085  0.018992999    1.5066526    1.5342058   0.70410504  0.066666667    1.3363481        1e-10 1.7602626e-11    5.6809705    2.4856806    30.403515 0.0079935752  -0.19949005 -0.001699663   0.20071117   0.16258555    1.1932613 
 1998000    4.1813496    1.2521012    2.9292483  -0.21354054    0.8348232   0.98989714   0.73832513   -1.2465374            1    1.6963166    2.2863594    2.2679494   0.53464102 0.0089579376 -0.070257227 -0.0033782986     1.540493    1.5661182   0.71293367  0.066666667    1.3485471        1e-10 1.7823342e-11    5.6106201    2.4800454    30.403515 -0.011190579  -0.17051487  0.003665924   0.20088738  -0.80974219    2.6017441 
 1999000    4.1499907    1.2575749    2.8924158   -0.2134878   0.83847271   0.98517774   0.74719082   -1.2465374            1    1.6073801    2.2065048    2.2318043   0.38383119 0.0014017449 0.0085370331 -0.0061371898    1.4496853    1.4778024   0.71734998  0.066666667    1.3728633        1e-10 1.7933749e-11    5.5760788    2.5339355    30.403515 -0.0056101146   -0.2006995  0.011709936   0.20024114  0.014426679    2.3599265 
 2000000    4.1717203    1.2626818    2.9090384  -0.21760811   0.84187767   0.98935993   0.75011199   -1.2465374            1    1.5633618    2.1603671    2.1932102   0.33650823 -0.0064706587  0.012805691  0.083137073    1.4050506    1.4332341   0.70647162  0.066666667    1.3657691        1e-10 1.766179e-11    5.6619401    2.5012677    30.403515 -0.0044010773  -0.18474253 0.0022465812   0.19619181    2.5206937    2.3010346 
Loop time of 1400.33 on 1 procs for 1000000 steps with 9376 atoms

Performance: 308499.782 tau/day, 714.120 timesteps/s
99.4% CPU use with 1 MPI tasks x 1 OpenMP threads

MPI task timing breakdown:
Section |  min time  |  avg time  |  max time  |%varavg| %total
---------------------------------------------------------------
Pair    | 157.98     | 157.98     | 157.98     |   0.0 | 11.28
Bond    | 359.18     | 359.18     | 359.18     |   0.0 | 25.65
Neigh   | 486.77     | 486.77     | 486.77     |   0.0 | 34.76
Comm    | 27.142     | 27.142     | 27.142     |   0.0 |  1.94
Output  | 1.8991     | 1.8991     | 1.8991     |   0.0 |  0.14
Modify  | 337.15     | 337.15     | 337.15     |   0.0 | 24.08
Other   |            | 30.2       |            |       |  2.16

Nlocal:    9376 ave 9376 max 9376 min
Histogram: 1 0 0 0 0 0 0 0 0 0
Nghost:    1673 ave 1673 max 1673 min
Histogram: 1 0 0 0 0 0 0 0 0 0
Neighs:    13280 ave 13280 max 13280 min
Histogram: 1 0 0 0 0 0 0 0 0 0

Total # of neighbors = 13280
Ave neighs/atom = 1.41638
Ave special neighs/atom = 6.92833
Neighbor list builds = 137821
Dangerous builds = 0

#--- Write Restart File ---#

write_restart  ecs.rst
shell          python post.py
shell          mkdir $(v_Wall_vi)_V
shell          mkdir 0.010000000000000000208_V
shell          cp -f *.csv $(v_Wall_vi)_V
shell          cp -f *.csv 0.010000000000000000208_V
shell          cp -f *.jpg $(v_Wall_vi)_V
shell          cp -f *.jpg 0.010000000000000000208_V
WARNING: Shell command returned with non-zero status (src/input.cpp:1365)
shell          cp -f log.lammps $(v_Wall_vi)_V
shell          cp -f log.lammps 0.