9376
Atoms. Timestep: 1000000
1 0 3.55271e-15 10.7147
1 0.793701 29.2063 10.7147
1 0.831847 29.964 9.8792
1 0.0326867 29.1906 9.86208
1 1.5874 3.55271e-15 10.7147
1 2.3811 29.2063 10.7147
1 2.39251 29.9343 9.92362
1 1.61738 29.1585 9.91845
1 3.1748 3.55271e-15 10.7147
1 3.9685 29.2063 10.7147
1 3.97102 29.9286 9.88667
1 3.19378 29.1821 9.91736
1 4.7622 3.55271e-15 10.7147
1 5.5559 29.2063 10.7147
1 5.58521 29.9396 9.90008
1 4.78494 29.1856 9.90398
1 6.3496 3.55271e-15 10.7147
1 7.1433 29.2063 10.7147
1 7.15322 29.9131 9.89716
1 6.35299 29.179 9.92143
1 7.93701 3.55271e-15 10.7147
1 8.73071 29.2063 10.7147
1 8.75977 29.9302 9.88208
1 7.95901 29.1761 9.9041
1 9.52441 3.55271e-15 10.7147
1 10.3181 29.2063 10.7147
1 10.3125 29.9467 9.88221
1 9.53017 29.2034 9.93811
1 11.1118 3.55271e-15 10.7147
1 11.9055 29.2063 10.7147
1 11.9277 29.9291 9.9096
1 11.1029 29.1828 9.92517
1 12.6992 3.55271e-15 10.7147
1 13.4929 29.2063 10.7147
1 13.504 29.9422 9.87782
1 12.6971 29.1871 9.91962
1 14.2866 3.55271e-15 10.7147
1 15.0803 29.2063 10.7147
1 15.0972 29.9301 9.88069
1 14.3255 29.1798 9.90737
1 15.874 3.55271e-15 10.7147
1 16.6677 29.2063 10.7147
1 16.6927 29.924 9.88297
1 15.9067 29.1852 9.92188
1 17.4614 3.55271e-15 10.7147
1 18.2551 29.2063 10.7147
1 18.2523 29.9234 9.91659
1 17.4838 29.1846 9.92429
1 19.0488 3.55271e-15 10.7147
1 19.8425 29.2063 10.7147
1 19.8304 29.9413 9.89728
1 19.0489 29.1691 9.90666
1 20.6362 3.55271e-15 10.7147
1 21.4299 29.2063 10.7147
1 21.4401 29.9561 9.87241
1 20.656 29.1893 9.90927
1 22.2236 3.55271e-15 10.7147
1 23.0173 29.2063 10.7147
1 23.0004 29.9548 9.91178
1 22.2136 29.1743 9.90077
1 23.811 3.55271e-15 10.7147
1 24.6047 29.2063 10.7147
1 24.6035 29.9 9.88504
1 23.777 29.2072 9.90379
1 25.3984 3.55271e-15 10.7147
1 26.1921 29.2063 10.7147
1 26.1791 29.9586 9.9119
1 25.3933 29.176 9.90054
1 26.9858 3.55271e-15 10.7147
1 27.7795 29.2063 10.7147
1 27.7524 29.9399 9.86764
1 26.9899 29.1827 9.89434
1 28.5732 3.55271e-15 10.7147
1 29.3669 29.2063 10.7147
1 29.289 29.9591 9.85908
1 28.528 29.1554 9.90506
1 0 28.4126 10.7147
1 0.793701 27.6189 10.7147
1 0.806394 28.4098 9.90657
1 0.0719209 27.61 9.89119
1 1.5874 28.4126 10.7147
1 2.3811 27.6189 10.7147
1 2.40009 28.3893 9.94456
1 1.61073 27.6105 9.92323
1 3.1748 28.4126 10.7147
1 3.9685 27.6189 10.7147
1 3.97393 28.3968 9.92921
1 3.20495 27.6164 9.92789
1 4.7622 28.4126 10.7147
1 5.5559 27.6189 10.7147
1 5.55561 28.4078 9.90958
1 4.77788 27.6165 9.93373
1 6.3496 28.4126 10.7147
1 7.1433 27.6189 10.7147
1 7.14982 28.3865 9.94026
1 6.32889 27.5956 9.92769
1 7.93701 28.4126 10.7147
1 8.73071 27.6189 10.7147
1 8.73807 28.4196 9.89514
1 7.92037 27.6281 9.93156
1 9.52441 28.4126 10.7147
1 10.3181 27.6189 10.7147
1 10.3066 28.4047 9.9304
1 9.53019 27.6179 9.91923
1 11.1118 28.4126 10.7147
1 11.9055 27.6189 10.7147
1 11.9216 28.382 9.9365
1 11.1491 27.5884 9.93753
1 12.6992 28.4126 10.7147
1 13.4929 27.6189 10.7147
1 13.5103 28.4085 9.91232
1 12.7268 27.6043 9.92796
1 14.2866 28.4126 10.7147
1 15.0803 27.6189 10.7147
1 15.0984 28.4039 9.95629
1 14.2903 27.6023 9.92326
1 15.874 28.4126 10.7147
1 16.6677 27.6189 10.7147
1 16.6907 28.3995 9.92923
1 15.8755 27.6225 9.91479
1 17.4614 28.4126 10.7147
1 18.2551 27.6189 10.7147
1 18.2729 28.3713 9.91897
1 17.4768 27.5912 9.92019
1 19.0488 28.4126 10.7147
1 19.8425 27.6189 10.7147
1 19.8584 28.3789 9.93046
1 19.0617 27.6233 9.92218
1 20.6362 28.4126 10.7147
1 21.4299 27.6189 10.7147
1 21.4465 28.3811 9.91182
1 20.6588 27.6163 9.93609
1 22.2236 28.4126 10.7147
1 23.0173 27.6189 10.7147
1 23.0219 28.3945 9.92512
1 22.2082 27.6332 9.91704
1 23.811 28.4126 10.7147
1 24.6047 27.6189 10.7147
1 24.5749 28.4308 9.91105
1 23.8079 27.606 9.90496
1 25.3984 28.4126 10.7147
1 26.1921 27.6189 10.7147
1 26.1955 28.3872 9.90171
1 25.3739 27.6398 9.91999
1 26.9858 28.4126 10.7147
1 27.7795 27.6189 10.7147
1 27.767 28.4094 9.90268
1 26.9511 27.6023 9.90788
1 28.5732 28.4126 10.7147
1 29.3669 27.6189 10.7147
1 29.2841 28.4 9.89385
1 28.545 27.601 9.87414
1 0 26.8252 10.7147
1 0.793701 26.0315 10.7147
1 0.832889 26.8183 9.93059
1 0.0848058 26.0365 9.87384
1 1.5874 26.8252 10.7147
1 2.3811 26.0315 10.7147
1 2.37799 26.8355 9.93614
1 1.61724 25.9943 9.92013
1 3.1748 26.8252 10.7147
1 3.9685 26.0315 10.7147
1 3.96578 26.8155 9.91867
1 3.18295 26.0029 9.91773
1 4.7622 26.8252 10.7147
1 5.5559 26.0315 10.7147
1 5.57394 26.7991 9.92745
1 4.77574 26.0212 9.95505
1 6.3496 26.8252 10.7147
1 7.1433 26.0315 10.7147
1 7.14358 26.815 9.92973
1 6.36091 26.0232 9.93684
1 7.93701 26.8252 10.7147
1 8.73071 26.0315 10.7147
1 8.7293 26.8081 9.91122
1 7.94663 26.0008 9.93302
1 9.52441 26.8252 10.7147
1 10.3181 26.0315 10.7147
1 10.325 26.8234 9.9142
1 9.51508 26.0156 9.93115
1 11.1118 26.8252 10.7147
1 11.9055 26.0315 10.7147
1 11.9083 26.8288 9.92222
1 11.1272 26.0348 9.90701
1 12.6992 26.8252 10.7147
1 13.4929 26.0315 10.7147
1 13.5066 26.7983 9.9238
1 12.7088 26.0152 9.9036
1 14.2866 26.8252 10.7147
1 15.0803 26.0315 10.7147
1 15.0756 26.8389 9.92457
1 14.2948 26.0142 9.93802
1 15.874 26.8252 10.7147
1 16.6677 26.0315 10.7147
1 16.6658 26.8331 9.93166
1 15.8655 26.0258 9.90959
1 17.4614 26.8252 10.7147
1 18.2551 26.0315 10.7147
1 18.2444 26.8305 9.92522
1 17.4641 26.025 9.91187
1 19.0488 26.8252 10.7147
1 19.8425 26.0315 10.7147
1 19.8467 26.8213 9.9074
1 19.06 26.0384 9.9366
1 20.6362 26.8252 10.7147
1 21.4299 26.0315 10.7147
1 21.4369 26.797 9.93392
1 20.6176 26.0384 9.91453
1 22.2236 26.8252 10.7147
1 23.0173 26.0315 10.7147
1 23.0026 26.8343 9.91196
1 22.2259 26.0076 9.91882
1 23.811 26.8252 10.7147
1 24.6047 26.0315 10.7147
1 24.5983 26.8236 9.93066
1 23.8095 26.0419 9.92505
1 25.3984 26.8252 10.7147
1 26.1921 26.0315 10.7147
1 26.1665 26.8155 9.90967
1 25.3759 26.0161 9.92672
1 26.9858 26.8252 10.7147
1 27.7795 26.0315 10.7147
1 27.7604 26.8027 9.90793
1 26.969 26.0286 9.92438
1 28.5732 26.8252 10.7147
1 29.3669 26.0315 10.7147
1 29.2911 26.8191 9.89027
1 28.5498 26.012 9.89235
1 0 25.2378 10.7147
1 0.793701 24.4441 10.7147
1 0.813048 25.2081 9.92299
1 0.0429095 24.4406 9.88244
1 1.5874 25.2378 10.7147
1 2.3811 24.4441 10.7147
1 2.42831 25.2049 9.91897
1 1.59271 24.4526 9.91732
1 3.1748 25.2378 10.7147
1 3.9685 24.4441 10.7147
1 3.97897 25.2434 9.91352
1 3.22834 24.4359 9.92915
1 4.7622 25.2378 10.7147
1 5.5559 24.4441 10.7147
1 5.56861 25.2602 9.92894
1 4.78483 24.4477 9.93863
1 6.3496 25.2378 10.7147
1 7.1433 24.4441 10.7147
1 7.13373 25.2411 9.93433
1 6.31209 24.4254 9.92221
1 7.93701 25.2378 10.7147
1 8.73071 24.4441 10.7147
1 8.72802 25.2195 9.92228
1 7.9227 24.4596 9.93113
1 9.52441 25.2378 10.7147
1 10.3181 24.4441 10.7147
1 10.3328 25.2382 9.89828
1 9.54509 24.4283 9.92452
1 11.1118 25.2378 10.7147
1 11.9055 24.4441 10.7147
1 11.9104 25.2349 9.93632
1 11.1079 24.422 9.91709
1 12.6992 25.2378 10.7147
1 13.4929 24.4441 10.7147
1 13.5172 25.2324 9.90711
1 12.719 24.447 9.9346
1 14.2866 25.2378 10.7147
1 15.0803 24.4441 10.7147
1 15.0857 25.226 9.92916
1 14.3092 24.4558 9.92156
1 15.874 25.2378 10.7147
1 16.6677 24.4441 10.7147
1 16.6608 25.2436 9.92018
1 15.8813 24.454 9.9213
1 17.4614 25.2378 10.7147
1 18.2551 24.4441 10.7147
1 18.2536 25.2395 9.92746
1 17.4381 24.4462 9.9277
1 19.0488 25.2378 10.7147
1 19.8425 24.4441 10.7147
1 19.8624 25.2186 9.92729
1 19.0514 24.4385 9.9103
1 20.6362 25.2378 10.7147
1 21.4299 24.4441 10.7147
1 21.4296 25.2431 9.91618
1 20.6287 24.4323 9.90539
1 22.2236 25.2378 10.7147
1 23.0173 24.4441 10.7147
1 23.0315 25.2247 9.92493
1 22.2208 24.444 9.93602
1 23.811 25.2378 10.7147
1 24.6047 24.4441 10.7147
1 24.6136 25.2254 9.91978
1 23.8105 24.446 9.91405
1 25.3984 25.2378 10.7147
1 26.1921 24.4441 10.7147
1 26.1969 25.2412 9.90291
1 25.4094 24.4642 9.905
1 26.9858 25.2378 10.7147
1 27.7795 24.4441 10.7147
1 27.7736 25.2552 9.94361
1 26.9775 24.439 9.94689
1 28.5732 25.2378 10.7147
1 29.3669 24.4441 10.7147
1 29.2816 25.1994 9.8681
1 28.5473 24.4425 9.9041
1 0 23.6504 10.7147
1 0.793701 22.8567 10.7147
1 0.823673 23.6489 9.89737
1 0.0682719 22.8621 9.88567
1 1.5874 23.6504 10.7147
1 2.3811 22.8567 10.7147
1 2.4174 23.6815 9.9212
1 1.62243 22.8896 9.9351
1 3.1748 23.6504 10.7147
1 3.9685 22.8567 10.7147
1 3.99581 23.6548 9.94117
1 3.19978 22.896 9.92801
1 4.7622 23.6504 10.7147
1 5.5559 22.8567 10.7147
1 5.55696 23.6298 9.94779
1 4.77169 22.8447 9.91931
1 6.3496 23.6504 10.7147
1 7.1433 22.8567 10.7147
1 7.12294 23.6334 9.93615
1 6.34915 22.8493 9.92419
1 7.93701 23.6504 10.7147
1 8.73071 22.8567 10.7147
1 8.75089 23.6657 9.92665
1 7.94091 22.8543 9.92927
1 9.52441 23.6504 10.7147
1 10.3181 22.8567 10.7147
1 10.3173 23.657 9.90196
1 9.54691 22.8279 9.92512
1 11.1118 23.6504 10.7147
1 11.9055 22.8567 10.7147
1 11.9041 23.6299 9.92564
1 11.0742 22.8638 9.91753
1 12.6992 23.6504 10.7147
1 13.4929 22.8567 10.7147
1 13.5068 23.6651 9.92465
1 12.6882 22.8503 9.92535
1 14.2866 23.6504 10.7147
1 15.0803 22.8567 10.7147
1 15.0646 23.6579 9.91753
1 14.2881 22.8723 9.92113
1 15.874 23.6504 10.7147
1 16.6677 22.8567 10.7147
1 16.6589 23.664 9.94337
1 15.8512 22.8448 9.93262
1 17.4614 23.6504 10.7147
1 18.2551 22.8567 10.7147
1 18.2426 23.6772 9.93757
1 17.4461 22.8438 9.93806
1 19.0488 23.6504 10.7147
1 19.8425 22.8567 10.7147
1 19.8471 23.6388 9.91053
1 19.0387 22.8811 9.9229
1 20.6362 23.6504 10.7147
1 21.4299 22.8567 10.7147
1 21.4217 23.645 9.93322
1 20.6211 22.8648 9.90256
1 22.2236 23.6504 10.7147
1 23.0173 22.8567 10.7147
1 23.0089 23.6569 9.9159
1 22.1984 22.8547 9.93934
1 23.811 23.6504 10.7147
1 24.6047 22.8567 10.7147
1 24.6366 23.6576 9.92895
1 23.7788 22.8492 9.94147
1 25.3984 23.6504 10.7147
1 26.1921 22.8567 10.7147
1 26.2046 23.6716 9.92533
1 25.4293 22.8394 9.91493
1 26.9858 23.6504 10.7147
1 27.7795 22.8567 10.7147
1 27.7578 23.6562 9.90151
1 26.9702 22.8825 9.92326
1 28.5732 23.6504 10.7147
1 29.3669 22.8567 10.7147
1 29.2784 23.6363 9.88799
1 28.5305 22.8547 9.91109
1 0 22.063 10.7147
1 0.793701 21.2693 10.7147
1 0.837957 22.0844 9.91181
1 0.0537558 21.3021 9.89353
1 1.5874 22.063 10.7147
1 2.3811 21.2693 10.7147
1 2.41885 22.052 9.92421
1 1.58976 21.2723 9.9228
1 3.1748 22.063 10.7147
1 3.9685 21.2693 10.7147
1 3.94802 22.087 9.93341
1 3.19554 21.2703 9.94499
1 4.7622 22.063 10.7147
1 5.5559 21.2693 10.7147
1 5.53411 22.0482 9.90661
1 4.76364 21.2691 9.9227
1 6.3496 22.063 10.7147
1 7.1433 21.2693 10.7147
1 7.14708 22.081 9.91989
1 6.3449 21.2644 9.91742
1 7.93701 22.063 10.7147
1 8.73071 21.2693 10.7147
1 8.70896 22.0757 9.91317
1 7.9152 21.2675 9.9219
1 9.52441 22.063 10.7147
1 10.3181 21.2693 10.7147
1 10.3282 22.0651 9.89983
1 9.55537 21.2731 9.93732
1 11.1118 22.063 10.7147
1 11.9055 21.2693 10.7147
1 11.9033 22.0815 9.93167
1 11.1389 21.2735 9.93258
1 12.6992 22.063 10.7147
1 13.4929 21.2693 10.7147
1 13.4834 22.0917 9.91662
1 12.7183 21.265 9.90233
1 14.2866 22.063 10.7147
1 15.0803 21.2693 10.7147
1 15.0748 22.0699 9.92328
1 14.2625 21.2695 9.93189
1 15.874 22.063 10.7147
1 16.6677 21.2693 10.7147
1 16.6726 22.0774 9.93731
1 15.8864 21.2841 9.92878
1 17.4614 22.063 10.7147
1 18.2551 21.2693 10.7147
1 18.2623 22.0459 9.9241
1 17.4561 21.2741 9.91094
1 19.0488 22.063 10.7147
1 19.8425 21.2693 10.7147
1 19.832 22.0746 9.91564
1 19.0777 21.2687 9.89382
1 20.6362 22.063 10.7147
1 21.4299 21.2693 10.7147
1 21.4243 22.0593 9.93804
1 20.637 21.2607 9.91211
1 22.2236 22.063 10.7147
1 23.0173 21.2693 10.7147
1 23.0158 22.0696 9.90899
1 22.1961 21.268 9.90877
1 23.811 22.063 10.7147
1 24.6047 21.2693 10.7147
1 24.6067 22.0663 9.9161
1 23.8023 21.2803 9.91024
1 25.3984 22.063 10.7147
1 26.1921 21.2693 10.7147
1 26.1843 22.0411 9.90907
1 25.3935 21.2667 9.93144
1 26.9858 22.063 10.7147
1 27.7795 21.2693 10.7147
1 27.757 22.0706 9.89595
1 26.9877 21.2604 9.92636
1 28.5732 22.063 10.7147
1 29.3669 21.2693 10.7147
1 29.2704 22.084 9.88578
1 28.5441 21.2577 9.92265
1 0 20.4756 10.7147
1 0.793701 19.6819 10.7147
1 0.816092 20.4662 9.90888
1 0.0588637 19.6623 9.8897
1 1.5874 20.4756 10.7147
1 2.3811 19.6819 10.7147
1 2.39162 20.5043 9.92681
1 1.61026 19.6886 9.89948
1 3.1748 20.4756 10.7147
1 3.9685 19.6819 10.7147
1 3.95266 20.4696 9.91963
1 3.17004 19.6842 9.92012
1 4.7622 20.4756 10.7147
1 5.5559 19.6819 10.7147
1 5.55046 20.4689 9.93712
1 4.75747 19.6777 9.92307
1 6.3496 20.4756 10.7147
1 7.1433 19.6819 10.7147
1 7.15056 20.4919 9.94007
1 6.36483 19.6821 9.89965
1 7.93701 20.4756 10.7147
1 8.73071 19.6819 10.7147
1 8.71851 20.485 9.92472
1 7.92076 19.685 9.91815
1 9.52441 20.4756 10.7147
1 10.3181 19.6819 10.7147
1 10.3456 20.4778 9.92394
1 9.50654 19.6901 9.90952
1 11.1118 20.4756 10.7147
1 11.9055 19.6819 10.7147
1 11.8936 20.4907 9.92759
1 11.1261 19.6826 9.94243
1 12.6992 20.4756 10.7147
1 13.4929 19.6819 10.7147
1 13.5102 20.472 9.9205
1 12.6894 19.6603 9.93338
1 14.2866 20.4756 10.7147
1 15.0803 19.6819 10.7147
1 15.0756 20.4806 9.94616
1 14.2797 19.6833 9.9186
1 15.874 20.4756 10.7147
1 16.6677 19.6819 10.7147
1 16.6593 20.4447 9.90554
1 15.8583 19.6875 9.91749
1 17.4614 20.4756 10.7147
1 18.2551 19.6819 10.7147
1 18.2758 20.4938 9.92459
1 17.4677 19.6843 9.90471
1 19.0488 20.4756 10.7147
1 19.8425 19.6819 10.7147
1 19.8418 20.4651 9.90215
1 19.0626 19.6906 9.92551
1 20.6362 20.4756 10.7147
1 21.4299 19.6819 10.7147
1 21.4214 20.4632 9.94201
1 20.6231 19.698 9.8936
1 22.2236 20.4756 10.7147
1 23.0173 19.6819 10.7147
1 23.003 20.4741 9.91694
1 22.2282 19.6778 9.92752
1 23.811 20.4756 10.7147
1 24.6047 19.6819 10.7147
1 24.5746 20.484 9.9367
1 23.8161 19.6743 9.91244
1 25.3984 20.4756 10.7147
1 26.1921 19.6819 10.7147
1 26.1651 20.4895 9.94378
1 25.379 19.6721 9.92696
1 26.9858 20.4756 10.7147
1 27.7795 19.6819 10.7147
1 27.7713 20.496 9.92444
1 26.9665 19.6877 9.93034
1 28.5732 20.4756 10.7147
1 29.3669 19.6819 10.7147
1 29.3079 20.4762 9.89414
1 28.542 19.6962 9.90875
1 0 18.8882 10.7147
1 0.793701 18.0945 10.7147
1 0.797367 18.8828 9.91434
1 0.0827761 18.0997 9.88975
1 1.5874 18.8882 10.7147
1 2.3811 18.0945 10.7147
1 2.41153 18.9111 9.9211
1 1.62098 18.0882 9.92896
1 3.1748 18.8882 10.7147
1 3.9685 18.0945 10.7147
1 3.98393 18.8907 9.91902
1 3.21227 18.0788 9.93897
1 4.7622 18.8882 10.7147
1 5.5559 18.0945 10.7147
1 5.56128 18.923 9.89688
1 4.78482 18.0576 9.934
1 6.3496 18.8882 10.7147
1 7.1433 18.0945 10.7147
1 7.1613 18.9021 9.90195
1 6.36417 18.1079 9.93291
1 7.93701 18.8882 10.7147
1 8.73071 18.0945 10.7147
1 8.73742 18.9171 9.92496
1 7.96537 18.1063 9.93918
1 9.52441 18.8882 10.7147
1 10.3181 18.0945 10.7147
1 10.3097 18.8874 9.92593
1 9.51558 18.0969 9.91835
1 11.1118 18.8882 10.7147
1 11.9055 18.0945 10.7147
1 11.912 18.8958 9.89863
1 11.1014 18.0678 9.92075
1 12.6992 18.8882 10.7147
1 13.4929 18.0945 10.7147
1 13.4971 18.8707 9.90859
1 12.6995 18.09 9.92914
1 14.2866 18.8882 10.7147
1 15.0803 18.0945 10.7147
1 15.0733 18.8871 9.9211
1 14.2781 18.0928 9.92079
1 15.874 18.8882 10.7147
1 16.6677 18.0945 10.7147
1 16.6651 18.8906 9.90841
1 15.8481 18.0974 9.91733
1 17.4614 18.8882 10.7147
1 18.2551 18.0945 10.7147
1 18.2584 18.9202 9.92304
1 17.46 18.1256 9.90521
1 19.0488 18.8882 10.7147
1 19.8425 18.0945 10.7147
1 19.8537 18.8728 9.92519
1 19.0131 18.0902 9.90693
1 20.6362 18.8882 10.7147
1 21.4299 18.0945 10.7147
1 21.4108 18.9024 9.93446
1 20.649 18.0961 9.91893
1 22.2236 18.8882 10.7147
1 23.0173 18.0945 10.7147
1 23.0196 18.8994 9.9154
1 22.2458 18.0953 9.92378
1 23.811 18.8882 10.7147
1 24.6047 18.0945 10.7147
1 24.6104 18.8703 9.92889
1 23.8084 18.0707 9.91515
1 25.3984 18.8882 10.7147
1 26.1921 18.0945 10.7147
1 26.192 18.8737 9.89991
1 25.3962 18.0949 9.92909
1 26.9858 18.8882 10.7147
1 27.7795 18.0945 10.7147
1 27.7784 18.9029 9.91909
1 26.9598 18.1031 9.91886
1 28.5732 18.8882 10.7147
1 29.3669 18.0945 10.7147
1 29.2988 18.8833 9.88954
1 28.5197 18.1037 9.90132
1 0 17.3008 10.7147
1 0.793701 16.5071 10.7147
1 0.825822 17.3129 9.92789
1 0.0410958 16.5294 9.89489
1 1.5874 17.3008 10.7147
1 2.3811 16.5071 10.7147
1 2.4034 17.2855 9.90295
1 1.5892 16.5121 9.9066
1 3.1748 17.3008 10.7147
1 3.9685 16.5071 10.7147
1 3.96814 17.2905 9.92618
1 3.17845 16.4708 9.93736
1 4.7622 17.3008 10.7147
1 5.5559 16.5071 10.7147
1 5.57166 17.3197 9.93813
1 4.77517 16.4924 9.91584
1 6.3496 17.3008 10.7147
1 7.1433 16.5071 10.7147
1 7.15967 17.3238 9.93439
1 6.33872 16.5049 9.94062
1 7.93701 17.3008 10.7147
1 8.73071 16.5071 10.7147
1 8.7301 17.3076 9.93559
1 7.94027 16.5407 9.91946
1 9.52441 17.3008 10.7147
1 10.3181 16.5071 10.7147
1 10.3101 17.3032 9.93976
1 9.51844 16.503 9.91368
1 11.1118 17.3008 10.7147
1 11.9055 16.5071 10.7147
1 11.9021 17.2867 9.93635
1 11.1164 16.5243 9.93284
1 12.6992 17.3008 10.7147
1 13.4929 16.5071 10.7147
1 13.4985 17.3078 9.90797
1 12.7227 16.532 9.94112
1 14.2866 17.3008 10.7147
1 15.0803 16.5071 10.7147
1 15.0641 17.3085 9.90258
1 14.2851 16.5086 9.90774
1 15.874 17.3008 10.7147
1 16.6677 16.5071 10.7147
1 16.6573 17.3267 9.92392
1 15.8494 16.5143 9.92313
1 17.4614 17.3008 10.7147
1 18.2551 16.5071 10.7147
1 18.2605 17.303 9.91404
1 17.4567 16.5179 9.92114
1 19.0488 17.3008 10.7147
1 19.8425 16.5071 10.7147
1 19.8611 17.3053 9.92596
1 19.035 16.5259 9.92944
1 20.6362 17.3008 10.7147
1 21.4299 16.5071 10.7147
1 21.4498 17.2913 9.90919
1 20.6541 16.4822 9.91099
1 22.2236 17.3008 10.7147
1 23.0173 16.5071 10.7147
1 23.0375 17.3105 9.94012
1 22.2265 16.514 9.93274
1 23.811 17.3008 10.7147
1 24.6047 16.5071 10.7147
1 24.6251 17.2798 9.94222
1 23.8356 16.5007 9.92811
1 25.3984 17.3008 10.7147
1 26.1921 16.5071 10.7147
1 26.1723 17.3 9.91173
1 25.4255 16.4962 9.91034
1 26.9858 17.3008 10.7147
1 27.7795 16.5071 10.7147
1 27.7321 17.3069 9.95562
1 26.9503 16.5133 9.95202
1 28.5732 17.3008 10.7147
1 29.3669 16.5071 10.7147
1 29.2798 17.3474 9.89672
1 28.5362 16.5355 9.92728
1 0 15.7134 10.7147
1 0.793701 14.9197 10.7147
1 0.819742 15.7176 9.92026
1 0.0530952 14.8989 9.90594
1 1.5874 15.7134 10.7147
1 2.3811 14.9197 10.7147
1 2.37586 15.6944 9.90935
1 1.57537 14.9023 9.92228
1 3.1748 15.7134 10.7147
1 3.9685 14.9197 10.7147
1 3.98066 15.7206 9.92695
1 3.18591 14.9264 9.92039
1 4.7622 15.7134 10.7147
1 5.5559 14.9197 10.7147
1 5.54846 15.7127 9.91177
1 4.78201 14.9061 9.91766
1 6.3496 15.7134 10.7147
1 7.1433 14.9197 10.7147
1 7.15252 15.6966 9.92332
1 6.35322 14.9195 9.92469
1 7.93701 15.7134 10.7147
1 8.73071 14.9197 10.7147
1 8.72717 15.7243 9.95645
1 7.95628 14.9302 9.92036
1 9.52441 15.7134 10.7147
1 10.3181 14.9197 10.7147
1 10.3167 15.709 9.92547
1 9.50602 14.9069 9.92835
1 11.1118 15.7134 10.7147
1 11.9055 14.9197 10.7147
1 11.898 15.7253 9.92537
1 11.1154 14.9255 9.90138
1 12.6992 15.7134 10.7147
1 13.4929 14.9197 10.7147
1 13.5051 15.7154 9.91865
1 12.7044 14.9315 9.9567
1 14.2866 15.7134 10.7147
1 15.0803 14.9197 10.7147
1 15.0828 15.7118 9.92493
1 14.2736 14.9002 9.91949
1 15.874 15.7134 10.7147
1 16.6677 14.9197 10.7147
1 16.6649 15.7035 9.93231
1 15.8656 14.9042 9.93425
1 17.4614 15.7134 10.7147
1 18.2551 14.9197 10.7147
1 18.2568 15.7451 9.95188
1 17.4772 14.9058 9.9149
1 19.0488 15.7134 10.7147
1 19.8425 14.9197 10.7147
1 19.858 15.7072 9.91629
1 19.014 14.8985 9.92506
1 20.6362 15.7134 10.7147
1 21.4299 14.9197 10.7147
1 21.4616 15.6803 9.90826
1 20.6456 14.9225 9.90081
1 22.2236 15.7134 10.7147
1 23.0173 14.9197 10.7147
1 23.0194 15.7135 9.89301
1 22.2402 14.9026 9.91899
1 23.811 15.7134 10.7147
1 24.6047 14.9197 10.7147
1 24.5979 15.694 9.91632
1 23.7729 14.8947 9.92459
1 25.3984 15.7134 10.7147
1 26.1921 14.9197 10.7147
1 26.179 15.7063 9.93405
1 25.4034 14.9318 9.91983
1 26.9858 15.7134 10.7147
1 27.7795 14.9197 10.7147
1 27.7743 15.7235 9.92109
1 26.969 14.9303 9.90934
1 28.5732 15.7134 10.7147
1 29.3669 14.9197 10.7147
1 29.2718 15.7262 9.87039
1 28.5321 14.9444 9.92296
1 0 14.126 10.7147
1 0.793701 13.3323 10.7147
1 0.823297 14.1211 9.90103
1 0.0809311 13.3378 9.8983
1 1.5874 14.126 10.7147
1 2.3811 13.3323 10.7147
1 2.40045 14.1398 9.91673
1 1.59124 13.3262 9.91431
1 3.1748 14.126 10.7147
1 3.9685 13.3323 10.7147
1 3.95752 14.1192 9.89805
1 3.15555 13.3303 9.91807
1 4.7622 14.126 10.7147
1 5.5559 13.3323 10.7147
1 5.55987 14.1108 9.91624
1 4.73642 13.3381 9.94417
1 6.3496 14.126 10.7147
1 7.1433 13.3323 10.7147
1 7.15012 14.1324 9.9082
1 6.36427 13.3341 9.9076
1 7.93701 14.126 10.7147
1 8.73071 13.3323 10.7147
1 8.72925 14.0974 9.91075
1 7.94619 13.3338 9.9195
1 9.52441 14.126 10.7147
1 10.3181 13.3323 10.7147
1 10.3334 14.1327 9.92087
1 9.51447 13.3357 9.92398
1 11.1118 14.126 10.7147
1 11.9055 13.3323 10.7147
1 11.932 14.1306 9.91805
1 11.1131 13.3577 9.9175
1 12.6992 14.126 10.7147
1 13.4929 13.3323 10.7147
1 13.4865 14.1304 9.91339
1 12.7 13.3335 9.90713
1 14.2866 14.126 10.7147
1 15.0803 13.3323 10.7147
1 15.0622 14.1467 9.92024
1 14.2711 13.3393 9.92549
1 15.874 14.126 10.7147
1 16.6677 13.3323 10.7147
1 16.6779 14.1169 9.93357
1 15.8621 13.3161 9.94443
1 17.4614 14.126 10.7147
1 18.2551 13.3323 10.7147
1 18.2647 14.0944 9.94406
1 17.4429 13.326 9.94298
1 19.0488 14.126 10.7147
1 19.8425 13.3323 10.7147
1 19.8247 14.1069 9.92555
1 19.0606 13.3344 9.94671
1 20.6362 14.126 10.7147
1 21.4299 13.3323 10.7147
1 21.435 14.1414 9.91621
1 20.6239 13.333 9.91804
1 22.2236 14.126 10.7147
1 23.0173 13.3323 10.7147
1 23.0348 14.1061 9.90885
1 22.1981 13.3309 9.91942
1 23.811 14.126 10.7147
1 24.6047 13.3323 10.7147
1 24.6163 14.1215 9.93403
1 23.8441 13.3278 9.92354
1 25.3984 14.126 10.7147
1 26.1921 13.3323 10.7147
1 26.1843 14.1242 9.92139
1 25.4052 13.3327 9.92002
1 26.9858 14.126 10.7147
1 27.7795 13.3323 10.7147
1 27.7689 14.1311 9.90544
1 26.976 13.3278 9.92943
1 28.5732 14.126 10.7147
1 29.3669 13.3323 10.7147
1 29.3132 14.147 9.88177
1 28.5462 13.3256 9.92683
1 0 12.5386 10.7147
1 0.793701 11.7449 10.7147
1 0.8356 12.5324 9.90619
1 0.0647663 11.7654 9.89821
1 1.5874 12.5386 10.7147
1 2.3811 11.7449 10.7147
1 2.3826 12.5352 9.9206
1 1.59391 11.7241 9.90986
1 3.1748 12.5386 10.7147
1 3.9685 11.7449 10.7147
1 3.97165 12.5095 9.91055
1 3.16987 11.7456 9.93155
1 4.7622 12.5386 10.7147
1 5.5559 11.7449 10.7147
1 5.54618 12.5467 9.93561
1 4.75273 11.7435 9.92708
1 6.3496 12.5386 10.7147
1 7.1433 11.7449 10.7147
1 7.1523 12.5261 9.92482
1 6.3361 11.7404 9.93658
1 7.93701 12.5386 10.7147
1 8.73071 11.7449 10.7147
1 8.73671 12.5393 9.9244
1 7.95249 11.7247 9.9152
1 9.52441 12.5386 10.7147
1 10.3181 11.7449 10.7147
1 10.3048 12.5235 9.90119
1 9.50894 11.743 9.9152
1 11.1118 12.5386 10.7147
1 11.9055 11.7449 10.7147
1 11.9361 12.5324 9.93106
1 11.1221 11.7414 9.91469
1 12.6992 12.5386 10.7147
1 13.4929 11.7449 10.7147
1 13.4898 12.5311 9.89521
1 12.7135 11.7323 9.92443
1 14.2866 12.5386 10.7147
1 15.0803 11.7449 10.7147
1 15.0702 12.5536 9.91662
1 14.2749 11.7443 9.92283
1 15.874 12.5386 10.7147
1 16.6677 11.7449 10.7147
1 16.6577 12.546 9.93757
1 15.889 11.7619 9.92419
1 17.4614 12.5386 10.7147
1 18.2551 11.7449 10.7147
1 18.2321 12.515 9.94045
1 17.4661 11.7549 9.92831
1 19.0488 12.5386 10.7147
1 19.8425 11.7449 10.7147
1 19.8374 12.5174 9.93453
1 19.036 11.7586 9.94033
1 20.6362 12.5386 10.7147
1 21.4299 11.7449 10.7147
1 21.438 12.527 9.92845
1 20.6593 11.7477 9.92078
1 22.2236 12.5386 10.7147
1 23.0173 11.7449 10.7147
1 22.9985 12.5573 9.92355
1 22.2633 11.7542 9.93577
1 23.811 12.5386 10.7147
1 24.6047 11.7449 10.7147
1 24.6094 12.543 9.94272
1 23.8071 11.7435 9.90918
1 25.3984 12.5386 10.7147
1 26.1921 11.7449 10.7147
1 26.1945 12.5485 9.90214
1 25.4092 11.7614 9.92128
1 26.9858 12.5386 10.7147
1 27.7795 11.7449 10.7147
1 27.7742 12.5364 9.90371
1 26.9755 11.7673 9.88681
1 28.5732 12.5386 10.7147
1 29.3669 11.7449 10.7147
1 29.3327 12.5257 9.86191
1 28.5569 11.7599 9.91071
1 0 10.9512 10.7147
1 0.793701 10.1575 10.7147
1 0.798427 10.9452 9.92337
1 0.0372858 10.1295 9.92108
1 1.5874 10.9512 10.7147
1 2.3811 10.1575 10.7147
1 2.394 10.9748 9.90478
1 1.60563 10.1829 9.92056
1 3.1748 10.9512 10.7147
1 3.9685 10.1575 10.7147
1 3.97583 10.9451 9.93474
1 3.17389 10.1358 9.92069
1 4.7622 10.9512 10.7147
1 5.5559 10.1575 10.7147
1 5.56063 10.9679 9.94348
1 4.75618 10.1591 9.91203
1 6.3496 10.9512 10.7147
1 7.1433 10.1575 10.7147
1 7.15041 10.9376 9.93242
1 6.35292 10.1521 9.93044
1 7.93701 10.9512 10.7147
1 8.73071 10.1575 10.7147
1 8.74584 10.9691 9.90676
1 7.91799 10.1427 9.92596
1 9.52441 10.9512 10.7147
1 10.3181 10.1575 10.7147
1 10.2847 10.9379 9.90729
1 9.51204 10.1541 9.91639
1 11.1118 10.9512 10.7147
1 11.9055 10.1575 10.7147
1 11.8952 10.9273 9.93672
1 11.0925 10.1393 9.92536
1 12.6992 10.9512 10.7147
1 13.4929 10.1575 10.7147
1 13.5022 10.9329 9.91752
1 12.6907 10.1504 9.91976
1 14.2866 10.9512 10.7147
1 15.0803 10.1575 10.7147
1 15.0613 10.9612 9.91148
1 14.2872 10.1719 9.94392
1 15.874 10.9512 10.7147
1 16.6677 10.1575 10.7147
1 16.7008 10.956 9.94841
1 15.857 10.1807 9.93129
1 17.4614 10.9512 10.7147
1 18.2551 10.1575 10.7147
1 18.2443 10.9349 9.88572
1 17.4669 10.1417 9.90507
1 19.0488 10.9512 10.7147
1 19.8425 10.1575 10.7147
1 19.8326 10.9616 9.92491
1 19.0564 10.1446 9.94524
1 20.6362 10.9512 10.7147
1 21.4299 10.1575 10.7147
1 21.4337 10.9493 9.90982
1 20.618 10.1447 9.9222
1 22.2236 10.9512 10.7147
1 23.0173 10.1575 10.7147
1 23.0227 10.9533 9.92929
1 22.237 10.1602 9.93409
1 23.811 10.9512 10.7147
1 24.6047 10.1575 10.7147
1 24.6395 10.9624 9.92361
1 23.8317 10.1712 9.91129
1 25.3984 10.9512 10.7147
1 26.1921 10.1575 10.7147
1 26.1606 10.9334 9.91325
1 25.3718 10.1518 9.9491
1 26.9858 10.9512 10.7147
1 27.7795 10.1575 10.7147
1 27.7578 10.9658 9.90634
1 26.9679 10.1607 9.91926
1 28.5732 10.9512 10.7147
1 29.3669 10.1575 10.7147
1 29.3183 10.9485 9.87466
1 28.5431 10.1721 9.90525
1 0 9.36379 10.7147
1 0.793701 8.57009 10.7147
1 0.847272 9.38016 9.93055
1 0.0958886 8.55245 9.88326
1 1.5874 9.36379 10.7147
1 2.3811 8.57009 10.7147
1 2.39103 9.3625 9.92034
1 1.60265 8.57115 9.93189
1 3.1748 9.36379 10.7147
1 3.9685 8.57009 10.7147
1 3.97592 9.39677 9.922
1 3.19947 8.54671 9.94484
1 4.7622 9.36379 10.7147
1 5.5559 8.57009 10.7147
1 5.54433 9.34694 9.92611
1 4.73049 8.58349 9.94435
1 6.3496 9.36379 10.7147
1 7.1433 8.57009 10.7147
1 7.15048 9.3471 9.92344
1 6.34259 8.55365 9.90728
1 7.93701 9.36379 10.7147
1 8.73071 8.57009 10.7147
1 8.72633 9.37055 9.92395
1 7.90634 8.55087 9.92675
1 9.52441 9.36379 10.7147
1 10.3181 8.57009 10.7147
1 10.3074 9.34393 9.92471
1 9.51273 8.54746 9.93362
1 11.1118 9.36379 10.7147
1 11.9055 8.57009 10.7147
1 11.9165 9.36538 9.91523
1 11.1096 8.54305 9.91099
1 12.6992 9.36379 10.7147
1 13.4929 8.57009 10.7147
1 13.4991 9.36291 9.904
1 12.6967 8.57037 9.93966
1 14.2866 9.36379 10.7147
1 15.0803 8.57009 10.7147
1 15.0912 9.37466 9.9057
1 14.2855 8.55841 9.89102
1 15.874 9.36379 10.7147
1 16.6677 8.57009 10.7147
1 16.6445 9.35858 9.91217
1 15.8657 8.55471 9.91757
1 17.4614 9.36379 10.7147
1 18.2551 8.57009 10.7147
1 18.2602 9.3694 9.90975
1 17.4198 8.57301 9.90707
1 19.0488 9.36379 10.7147
1 19.8425 8.57009 10.7147
1 19.8269 9.35059 9.92467
1 19.0458 8.57168 9.91648
1 20.6362 9.36379 10.7147
1 21.4299 8.57009 10.7147
1 21.4564 9.36424 9.92158
1 20.6211 8.61077 9.9236
1 22.2236 9.36379 10.7147
1 23.0173 8.57009 10.7147
1 23.0209 9.36759 9.92341
1 22.2119 8.58844 9.91181
1 23.811 9.36379 10.7147
1 24.6047 8.57009 10.7147
1 24.5887 9.37174 9.93146
1 23.7946 8.56414 9.92748
1 25.3984 9.36379 10.7147
1 26.1921 8.57009 10.7147
1 26.1759 9.35028 9.95253
1 25.364 8.55077 9.95223
1 26.9858 9.36379 10.7147
1 27.7795 8.57009 10.7147
1 27.7447 9.39044 9.94641
1 26.9802 8.56627 9.92669
1 28.5732 9.36379 10.7147
1 29.3669 8.57009 10.7147
1 29.2671 9.34606 9.90195
1 28.5138 8.57393 9.91202
1 0 7.77639 10.7147
1 0.793701 6.98268 10.7147
1 0.821917 7.76053 9.91348
1 0.0783038 6.9759 9.88453
1 1.5874 7.77639 10.7147
1 2.3811 6.98268 10.7147
1 2.40155 7.77528 9.91566
1 1.61127 6.96751 9.91645
1 3.1748 7.77639 10.7147
1 3.9685 6.98268 10.7147
1 3.9705 7.77027 9.92612
1 3.1862 6.97602 9.9406
1 4.7622 7.77639 10.7147
1 5.5559 6.98268 10.7147
1 5.53468 7.79641 9.89527
1 4.77491 6.95518 9.93317
1 6.3496 7.77639 10.7147
1 7.1433 6.98268 10.7147
1 7.13101 7.74449 9.92084
1 6.3256 6.99249 9.93053
1 7.93701 7.77639 10.7147
1 8.73071 6.98268 10.7147
1 8.72366 7.77669 9.92216
1 7.92905 6.97601 9.9331
1 9.52441 7.77639 10.7147
1 10.3181 6.98268 10.7147
1 10.3225 7.77231 9.89749
1 9.53606 6.98254 9.92564
1 11.1118 7.77639 10.7147
1 11.9055 6.98268 10.7147
1 11.9201 7.78309 9.92292
1 11.0942 6.99656 9.92394
1 12.6992 7.77639 10.7147
1 13.4929 6.98268 10.7147
1 13.4754 7.79955 9.9094
1 12.6893 7.02376 9.92346
1 14.2866 7.77639 10.7147
1 15.0803 6.98268 10.7147
1 15.081 7.7573 9.91395
1 14.2983 6.9939 9.89809
1 15.874 7.77639 10.7147
1 16.6677 6.98268 10.7147
1 16.6524 7.77873 9.92356
1 15.8608 6.96371 9.94622
1 17.4614 7.77639 10.7147
1 18.2551 6.98268 10.7147
1 18.2376 7.78605 9.89401
1 17.4512 6.99906 9.93496
1 19.0488 7.77639 10.7147
1 19.8425 6.98268 10.7147
1 19.8217 7.80844 9.91891
1 19.0353 6.97789 9.9366
1 20.6362 7.77639 10.7147
1 21.4299 6.98268 10.7147
1 21.4227 7.76954 9.93921
1 20.6041 7.01978 9.90283
1 22.2236 7.77639 10.7147
1 23.0173 6.98268 10.7147
1 23.0117 7.77841 9.91663
1 22.2212 6.98634 9.92168
1 23.811 7.77639 10.7147
1 24.6047 6.98268 10.7147
1 24.5654 7.76314 9.9193
1 23.7874 6.97924 9.90814
1 25.3984 7.77639 10.7147
1 26.1921 6.98268 10.7147
1 26.1813 7.76276 9.92543
1 25.3595 6.97129 9.91982
1 26.9858 7.77639 10.7147
1 27.7795 6.98268 10.7147
1 27.7666 7.74747 9.91278
1 26.971 6.97932 9.89422
1 28.5732 7.77639 10.7147
1 29.3669 6.98268 10.7147
1 29.3083 7.76168 9.86963
1 28.525 6.97212 9.90198
1 0 6.18898 10.7147
1 0.793701 5.39528 10.7147
1 0.808427 6.1791 9.91485
1 0.0698221 5.37763 9.89208
1 1.5874 6.18898 10.7147
1 2.3811 5.39528 10.7147
1 2.38958 6.18901 9.91781
1 1.5776 5.42271 9.93808
1 3.1748 6.18898 10.7147
1 3.9685 5.39528 10.7147
1 3.9724 6.19574 9.92961
1 3.19388 5.40846 9.9346
1 4.7622 6.18898 10.7147
1 5.5559 5.39528 10.7147
1 5.56975 6.16145 9.90077
1 4.75116 5.39126 9.90898
1 6.3496 6.18898 10.7147
1 7.1433 5.39528 10.7147
1 7.13828 6.19919 9.90539
1 6.36016 5.40262 9.93915
1 7.93701 6.18898 10.7147
1 8.73071 5.39528 10.7147
1 8.7347 6.19114 9.92858
1 7.92767 5.39747 9.91189
1 9.52441 6.18898 10.7147
1 10.3181 5.39528 10.7147