9376
Atoms. Timestep: 4000000
1 11.25 3.55271e-15 10.687
1 12.0437 29.2063 10.687
1 12.0653 29.9473 9.85267
1 11.3051 29.1778 9.86349
1 12.8374 3.55271e-15 10.687
1 13.6311 29.2063 10.687
1 13.6398 29.9581 9.85601
1 12.8609 29.1974 9.87931
1 14.4248 3.55271e-15 10.687
1 15.2185 29.2063 10.687
1 15.2242 29.9412 9.88151
1 14.4405 29.1782 9.90321
1 16.0122 3.55271e-15 10.687
1 16.8059 29.2063 10.687
1 16.8038 29.9177 9.85038
1 16.0219 29.1408 9.8516
1 17.5996 3.55271e-15 10.687
1 18.3933 29.2063 10.687
1 18.3866 29.9279 9.86274
1 17.6092 29.1665 9.88081
1 19.187 3.55271e-15 10.687
1 19.9807 29.2063 10.687
1 19.9635 29.9373 9.86441
1 19.1591 29.1846 9.8624
1 20.7744 3.55271e-15 10.687
1 21.5681 29.2063 10.687
1 21.562 29.9286 9.87461
1 20.7795 29.189 9.88756
1 22.3618 3.55271e-15 10.687
1 23.1555 29.2063 10.687
1 23.1523 29.9215 9.86513
1 22.3777 29.1823 9.89397
1 23.9492 3.55271e-15 10.687
1 24.7429 29.2063 10.687
1 24.7444 29.9172 9.84933
1 23.9678 29.1725 9.8803
1 25.5366 3.55271e-15 10.687
1 26.3303 29.2063 10.687
1 26.3244 29.9345 9.84666
1 25.515 29.1517 9.86415
1 27.124 3.55271e-15 10.687
1 27.9177 29.2063 10.687
1 27.9263 29.9098 9.86469
1 27.1189 29.1823 9.90583
1 28.7114 3.55271e-15 10.687
1 29.5051 29.2063 10.687
1 29.5221 29.9454 9.86559
1 28.7165 29.1963 9.88614
1 0.298813 3.55271e-15 10.687
1 1.09251 29.2063 10.687
1 1.08324 29.9341 9.87038
1 0.322835 29.1862 9.88298
1 1.88621 3.55271e-15 10.687
1 2.67991 29.2063 10.687
1 2.67369 29.9076 9.85695
1 1.88435 29.1664 9.92688
1 3.47361 3.55271e-15 10.687
1 4.26732 29.2063 10.687
1 4.27843 29.9048 9.83099
1 3.45924 29.1922 9.86924
1 5.06102 3.55271e-15 10.687
1 5.85472 29.2063 10.687
1 5.85558 29.9294 9.86595
1 5.07799 29.1948 9.89212
1 6.64842 3.55271e-15 10.687
1 7.44212 29.2063 10.687
1 7.44069 29.9369 9.85098
1 6.65068 29.1685 9.87279
1 8.23582 3.55271e-15 10.687
1 9.02952 29.2063 10.687
1 8.99002 29.9457 9.84855
1 8.22129 29.1658 9.88959
1 9.82322 3.55271e-15 10.687
1 10.6169 29.2063 10.687
1 10.5337 29.918 9.81185
1 9.76568 29.1853 9.88737
1 11.25 28.4126 10.687
1 12.0437 27.6189 10.687
1 12.0925 28.4139 9.87064
1 11.351 27.5893 9.88852
1 12.8374 28.4126 10.687
1 13.6311 27.6189 10.687
1 13.6375 28.3928 9.89591
1 12.8394 27.5944 9.88445
1 14.4248 28.4126 10.687
1 15.2185 27.6189 10.687
1 15.2253 28.4037 9.88497
1 14.4513 27.609 9.91061
1 16.0122 28.4126 10.687
1 16.8059 27.6189 10.687
1 16.8098 28.4016 9.89019
1 16.0285 27.6168 9.89764
1 17.5996 28.4126 10.687
1 18.3933 27.6189 10.687
1 18.4028 28.3831 9.89524
1 17.5894 27.6024 9.88909
1 19.187 28.4126 10.687
1 19.9807 27.6189 10.687
1 19.9804 28.3981 9.88437
1 19.1738 27.5764 9.90747
1 20.7744 28.4126 10.687
1 21.5681 27.6189 10.687
1 21.5706 28.3862 9.90757
1 20.7711 27.5872 9.90651
1 22.3618 28.4126 10.687
1 23.1555 27.6189 10.687
1 23.1741 28.3733 9.87247
1 22.3429 27.6032 9.89431
1 23.9492 28.4126 10.687
1 24.7429 27.6189 10.687
1 24.7383 28.4052 9.88412
1 23.9545 27.6113 9.90144
1 25.5366 28.4126 10.687
1 26.3303 27.6189 10.687
1 26.2969 28.3909 9.92061
1 25.5255 27.6462 9.88424
1 27.124 28.4126 10.687
1 27.9177 27.6189 10.687
1 27.9394 28.4236 9.87339
1 27.1139 27.6229 9.88017
1 28.7114 28.4126 10.687
1 29.5051 27.6189 10.687
1 29.5356 28.3842 9.8909
1 28.6734 27.5932 9.88963
1 0.298813 28.4126 10.687
1 1.09251 27.6189 10.687
1 1.11332 28.3877 9.9308
1 0.313112 27.5996 9.90217
1 1.88621 28.4126 10.687
1 2.67991 27.6189 10.687
1 2.70402 28.3934 9.89337
1 1.87318 27.6247 9.89508
1 3.47361 28.4126 10.687
1 4.26732 27.6189 10.687
1 4.2593 28.3818 9.86857
1 3.4943 27.6145 9.88072
1 5.06102 28.4126 10.687
1 5.85472 27.6189 10.687
1 5.85076 28.3948 9.91528
1 5.05294 27.5906 9.91461
1 6.64842 28.4126 10.687
1 7.44212 27.6189 10.687
1 7.4451 28.4002 9.88322
1 6.64244 27.6204 9.90539
1 8.23582 28.4126 10.687
1 9.02952 27.6189 10.687
1 9.01787 28.3982 9.8858
1 8.23494 27.6214 9.89155
1 9.82322 28.4126 10.687
1 10.6169 27.6189 10.687
1 10.5505 28.3839 9.86584
1 9.78532 27.626 9.87249
1 11.25 26.8252 10.687
1 12.0437 26.0315 10.687
1 12.0711 26.8046 9.89047
1 11.3287 26.0196 9.86169
1 12.8374 26.8252 10.687
1 13.6311 26.0315 10.687
1 13.623 26.8259 9.90233
1 12.8496 26.0019 9.90199
1 14.4248 26.8252 10.687
1 15.2185 26.0315 10.687
1 15.2244 26.8266 9.90848
1 14.4385 26.0302 9.88737
1 16.0122 26.8252 10.687
1 16.8059 26.0315 10.687
1 16.8235 26.8263 9.9073
1 16.0339 26.0271 9.88697
1 17.5996 26.8252 10.687
1 18.3933 26.0315 10.687
1 18.3984 26.804 9.90049
1 17.6121 25.9981 9.91416
1 19.187 26.8252 10.687
1 19.9807 26.0315 10.687
1 19.9704 26.8097 9.91496
1 19.1697 26.0285 9.90627
1 20.7744 26.8252 10.687
1 21.5681 26.0315 10.687
1 21.5695 26.8172 9.89594
1 20.7867 26.024 9.90774
1 22.3618 26.8252 10.687
1 23.1555 26.0315 10.687
1 23.1606 26.8013 9.90805
1 22.3761 26.0257 9.89628
1 23.9492 26.8252 10.687
1 24.7429 26.0315 10.687
1 24.7256 26.8153 9.89984
1 23.9457 26.0282 9.90186
1 25.5366 26.8252 10.687
1 26.3303 26.0315 10.687
1 26.3148 26.8154 9.89663
1 25.5321 26.0388 9.9329
1 27.124 26.8252 10.687
1 27.9177 26.0315 10.687
1 27.9055 26.7995 9.90872
1 27.1281 26.0425 9.8902
1 28.7114 26.8252 10.687
1 29.5051 26.0315 10.687
1 29.5178 26.8055 9.88733
1 28.683 26.0364 9.91655
1 0.298813 26.8252 10.687
1 1.09251 26.0315 10.687
1 1.08634 26.8482 9.88067
1 0.28484 26.0201 9.90531
1 1.88621 26.8252 10.687
1 2.67991 26.0315 10.687
1 2.66316 26.8465 9.90892
1 1.87103 26.0524 9.89629
1 3.47361 26.8252 10.687
1 4.26732 26.0315 10.687
1 4.26379 26.8225 9.89918
1 3.48468 26.0365 9.88997
1 5.06102 26.8252 10.687
1 5.85472 26.0315 10.687
1 5.88643 26.8196 9.8839
1 5.04624 26.0064 9.87862
1 6.64842 26.8252 10.687
1 7.44212 26.0315 10.687
1 7.44152 26.8476 9.89881
1 6.62601 26.0391 9.87977
1 8.23582 26.8252 10.687
1 9.02952 26.0315 10.687
1 9.03825 26.834 9.87787
1 8.21862 26.0479 9.88416
1 9.82322 26.8252 10.687
1 10.6169 26.0315 10.687
1 10.5454 26.8225 9.85649
1 9.79074 26.0129 9.90061
1 11.25 25.2378 10.687
1 12.0437 24.4441 10.687
1 12.0901 25.2025 9.88685
1 11.3259 24.4309 9.86517
1 12.8374 25.2378 10.687
1 13.6311 24.4441 10.687
1 13.6497 25.2472 9.90349
1 12.8832 24.4033 9.88384
1 14.4248 25.2378 10.687
1 15.2185 24.4441 10.687
1 15.2229 25.237 9.92157
1 14.4065 24.449 9.89907
1 16.0122 25.2378 10.687
1 16.8059 24.4441 10.687
1 16.7921 25.2422 9.90092
1 16.001 24.4447 9.88843
1 17.5996 25.2378 10.687
1 18.3933 24.4441 10.687
1 18.4036 25.2501 9.88081
1 17.5918 24.4524 9.88692
1 19.187 25.2378 10.687
1 19.9807 24.4441 10.687
1 19.9497 25.2321 9.88023
1 19.1604 24.4271 9.89402
1 20.7744 25.2378 10.687
1 21.5681 24.4441 10.687
1 21.5463 25.2304 9.90135
1 20.765 24.4458 9.89221
1 22.3618 25.2378 10.687
1 23.1555 24.4441 10.687
1 23.1642 25.2206 9.8731
1 22.3595 24.4266 9.90009
1 23.9492 25.2378 10.687
1 24.7429 24.4441 10.687
1 24.7455 25.2508 9.87472
1 23.9514 24.4327 9.87766
1 25.5366 25.2378 10.687
1 26.3303 24.4441 10.687
1 26.3306 25.2581 9.88929
1 25.5347 24.4717 9.86949
1 27.124 25.2378 10.687
1 27.9177 24.4441 10.687
1 27.9132 25.2473 9.89606
1 27.1135 24.4334 9.91016
1 28.7114 25.2378 10.687
1 29.5051 24.4441 10.687
1 29.4934 25.2289 9.89612
1 28.7001 24.4313 9.87844
1 0.298813 25.2378 10.687
1 1.09251 24.4441 10.687
1 1.08532 25.2443 9.89353
1 0.281017 24.4119 9.89885
1 1.88621 25.2378 10.687
1 2.67991 24.4441 10.687
1 2.69582 25.2411 9.87706
1 1.89605 24.4421 9.88083
1 3.47361 25.2378 10.687
1 4.26732 24.4441 10.687
1 4.26467 25.2611 9.88506
1 3.47717 24.4496 9.89752
1 5.06102 25.2378 10.687
1 5.85472 24.4441 10.687
1 5.84392 25.2344 9.89303
1 5.04627 24.4516 9.9037
1 6.64842 25.2378 10.687
1 7.44212 24.4441 10.687
1 7.43346 25.2581 9.91517
1 6.65976 24.4365 9.92628
1 8.23582 25.2378 10.687
1 9.02952 24.4441 10.687
1 9.02193 25.2401 9.88056
1 8.22802 24.4422 9.91334
1 9.82322 25.2378 10.687
1 10.6169 24.4441 10.687
1 10.5744 25.2271 9.86113
1 9.78638 24.4478 9.89694
1 11.25 23.6504 10.687
1 12.0437 22.8567 10.687
1 12.0698 23.6628 9.87626
1 11.3256 22.8548 9.86322
1 12.8374 23.6504 10.687
1 13.6311 22.8567 10.687
1 13.6488 23.6286 9.87768
1 12.8541 22.8453 9.87734
1 14.4248 23.6504 10.687
1 15.2185 22.8567 10.687
1 15.2115 23.6617 9.92183
1 14.4346 22.8359 9.88392
1 16.0122 23.6504 10.687
1 16.8059 22.8567 10.687
1 16.7989 23.6506 9.87665
1 16.0142 22.8544 9.90961
1 17.5996 23.6504 10.687
1 18.3933 22.8567 10.687
1 18.3656 23.6389 9.90497
1 17.5692 22.8697 9.88555
1 19.187 23.6504 10.687
1 19.9807 22.8567 10.687
1 19.9645 23.6472 9.87697
1 19.1895 22.8513 9.90168
1 20.7744 23.6504 10.687
1 21.5681 22.8567 10.687
1 21.573 23.6426 9.90959
1 20.7552 22.8455 9.90209
1 22.3618 23.6504 10.687
1 23.1555 22.8567 10.687
1 23.1868 23.6583 9.88905
1 22.3514 22.8457 9.88214
1 23.9492 23.6504 10.687
1 24.7429 22.8567 10.687
1 24.7416 23.6468 9.87681
1 23.9709 22.8568 9.90103
1 25.5366 23.6504 10.687
1 26.3303 22.8567 10.687
1 26.3118 23.6513 9.87753
1 25.5193 22.8527 9.89871
1 27.124 23.6504 10.687
1 27.9177 22.8567 10.687
1 27.9147 23.6592 9.88216
1 27.1249 22.8578 9.92491
1 28.7114 23.6504 10.687
1 29.5051 22.8567 10.687
1 29.4937 23.6394 9.91396
1 28.7183 22.8381 9.92792
1 0.298813 23.6504 10.687
1 1.09251 22.8567 10.687
1 1.10674 23.659 9.89642
1 0.309717 22.8827 9.91252
1 1.88621 23.6504 10.687
1 2.67991 22.8567 10.687
1 2.6989 23.6292 9.8989
1 1.88732 22.8597 9.91124
1 3.47361 23.6504 10.687
1 4.26732 22.8567 10.687
1 4.25326 23.6695 9.89908
1 3.49608 22.8451 9.86211
1 5.06102 23.6504 10.687
1 5.85472 22.8567 10.687
1 5.82957 23.6771 9.91359
1 5.07399 22.8706 9.89268
1 6.64842 23.6504 10.687
1 7.44212 22.8567 10.687
1 7.40032 23.6422 9.90221
1 6.67312 22.8527 9.89555
1 8.23582 23.6504 10.687
1 9.02952 22.8567 10.687
1 9.01727 23.6404 9.8895
1 8.22941 22.8582 9.89486
1 9.82322 23.6504 10.687
1 10.6169 22.8567 10.687
1 10.5642 23.6355 9.86353
1 9.79285 22.8586 9.87375
1 11.25 22.063 10.687
1 12.0437 21.2693 10.687
1 12.063 22.076 9.87661
1 11.3085 21.2427 9.85412
1 12.8374 22.063 10.687
1 13.6311 21.2693 10.687
1 13.6495 22.0645 9.87295
1 12.8611 21.2786 9.91542
1 14.4248 22.063 10.687
1 15.2185 21.2693 10.687
1 15.2339 22.0422 9.89551
1 14.4159 21.2813 9.89808
1 16.0122 22.063 10.687
1 16.8059 21.2693 10.687
1 16.782 22.0607 9.90402
1 16.0344 21.2692 9.89256
1 17.5996 22.063 10.687
1 18.3933 21.2693 10.687
1 18.3868 22.0638 9.90066
1 17.6134 21.251 9.89576
1 19.187 22.063 10.687
1 19.9807 21.2693 10.687
1 19.9928 22.0548 9.90172
1 19.1614 21.2606 9.88999
1 20.7744 22.063 10.687
1 21.5681 21.2693 10.687
1 21.5527 22.0614 9.87231
1 20.7691 21.2289 9.89089
1 22.3618 22.063 10.687
1 23.1555 21.2693 10.687
1 23.1607 22.0714 9.90489
1 22.3722 21.2913 9.89937
1 23.9492 22.063 10.687
1 24.7429 21.2693 10.687
1 24.7389 22.0497 9.89597
1 23.966 21.2912 9.89266
1 25.5366 22.063 10.687
1 26.3303 21.2693 10.687
1 26.3355 22.0546 9.87664
1 25.5296 21.2526 9.88289
1 27.124 22.063 10.687
1 27.9177 21.2693 10.687
1 27.9037 22.0495 9.89589
1 27.1064 21.244 9.90466
1 28.7114 22.063 10.687
1 29.5051 21.2693 10.687
1 29.5128 22.054 9.88664
1 28.705 21.2635 9.91439
1 0.298813 22.063 10.687
1 1.09251 21.2693 10.687
1 1.08542 22.0485 9.91056
1 0.29927 21.2799 9.88905
1 1.88621 22.063 10.687
1 2.67991 21.2693 10.687
1 2.67469 22.0807 9.91261
1 1.89978 21.2803 9.88131
1 3.47361 22.063 10.687
1 4.26732 21.2693 10.687
1 4.28224 22.0737 9.91061
1 3.48214 21.2508 9.88161
1 5.06102 22.063 10.687
1 5.85472 21.2693 10.687
1 5.83487 22.075 9.89711
1 5.07044 21.2662 9.91544
1 6.64842 22.063 10.687
1 7.44212 21.2693 10.687
1 7.44614 22.0534 9.90827
1 6.61882 21.258 9.89912
1 8.23582 22.063 10.687
1 9.02952 21.2693 10.687
1 9.03201 22.0552 9.89119
1 8.24681 21.2564 9.8718
1 9.82322 22.063 10.687
1 10.6169 21.2693 10.687
1 10.5412 22.0545 9.87153
1 9.80415 21.262 9.88712
1 11.25 20.4756 10.687
1 12.0437 19.6819 10.687
1 12.0553 20.4808 9.89294
1 11.335 19.6886 9.8724
1 12.8374 20.4756 10.687
1 13.6311 19.6819 10.687
1 13.6488 20.4835 9.88065
1 12.8371 19.6983 9.8925
1 14.4248 20.4756 10.687
1 15.2185 19.6819 10.687
1 15.2359 20.4939 9.89232
1 14.4268 19.7013 9.89934
1 16.0122 20.4756 10.687
1 16.8059 19.6819 10.687
1 16.8202 20.4634 9.87121
1 16.0235 19.6601 9.8976
1 17.5996 20.4756 10.687
1 18.3933 19.6819 10.687
1 18.3883 20.4544 9.90263
1 17.6091 19.6722 9.87245
1 19.187 20.4756 10.687
1 19.9807 19.6819 10.687
1 19.9754 20.479 9.89226
1 19.1906 19.6767 9.87991
1 20.7744 20.4756 10.687
1 21.5681 19.6819 10.687
1 21.5801 20.4616 9.89822
1 20.761 19.698 9.88446
1 22.3618 20.4756 10.687
1 23.1555 19.6819 10.687
1 23.1492 20.4723 9.88124
1 22.3633 19.7075 9.87425
1 23.9492 20.4756 10.687
1 24.7429 19.6819 10.687
1 24.7422 20.4913 9.89378
1 23.9455 19.6961 9.88769
1 25.5366 20.4756 10.687
1 26.3303 19.6819 10.687
1 26.3048 20.4543 9.88373
1 25.536 19.6569 9.90608
1 27.124 20.4756 10.687
1 27.9177 19.6819 10.687
1 27.9114 20.4822 9.88034
1 27.1101 19.6989 9.88906
1 28.7114 20.4756 10.687
1 29.5051 19.6819 10.687
1 29.4849 20.4783 9.90111
1 28.709 19.6732 9.8882
1 0.298813 20.4756 10.687
1 1.09251 19.6819 10.687
1 1.08097 20.4838 9.91694
1 0.30335 19.6997 9.90605
1 1.88621 20.4756 10.687
1 2.67991 19.6819 10.687
1 2.6858 20.4554 9.88141
1 1.88212 19.6656 9.89078
1 3.47361 20.4756 10.687
1 4.26732 19.6819 10.687
1 4.27108 20.4543 9.90841
1 3.50877 19.6713 9.89658
1 5.06102 20.4756 10.687
1 5.85472 19.6819 10.687
1 5.86646 20.4619 9.8823
1 5.06574 19.6898 9.88996
1 6.64842 20.4756 10.687
1 7.44212 19.6819 10.687
1 7.423 20.4659 9.90708
1 6.6686 19.6898 9.89889
1 8.23582 20.4756 10.687
1 9.02952 19.6819 10.687
1 9.02869 20.4758 9.90219
1 8.21425 19.6896 9.91098
1 9.82322 20.4756 10.687
1 10.6169 19.6819 10.687
1 10.5547 20.4626 9.8605
1 9.79672 19.673 9.88116
1 11.25 18.8882 10.687
1 12.0437 18.0945 10.687
1 12.0672 18.8668 9.89385
1 11.312 18.0998 9.85101
1 12.8374 18.8882 10.687
1 13.6311 18.0945 10.687
1 13.6424 18.9027 9.87246
1 12.8386 18.0901 9.89855
1 14.4248 18.8882 10.687
1 15.2185 18.0945 10.687
1 15.229 18.8854 9.86668
1 14.422 18.0837 9.88794
1 16.0122 18.8882 10.687
1 16.8059 18.0945 10.687
1 16.8173 18.8769 9.88272
1 16.0206 18.097 9.85603
1 17.5996 18.8882 10.687
1 18.3933 18.0945 10.687
1 18.3876 18.8858 9.87537
1 17.5922 18.1196 9.87955
1 19.187 18.8882 10.687
1 19.9807 18.0945 10.687
1 19.9624 18.8894 9.91184
1 19.1745 18.0873 9.90328
1 20.7744 18.8882 10.687
1 21.5681 18.0945 10.687
1 21.5465 18.8986 9.88206
1 20.7685 18.0916 9.90034
1 22.3618 18.8882 10.687
1 23.1555 18.0945 10.687
1 23.1486 18.8735 9.89773
1 22.3329 18.0824 9.88919
1 23.9492 18.8882 10.687
1 24.7429 18.0945 10.687
1 24.7494 18.8932 9.86137
1 23.9478 18.0941 9.88495
1 25.5366 18.8882 10.687
1 26.3303 18.0945 10.687
1 26.3264 18.9056 9.88128
1 25.534 18.0891 9.87946
1 27.124 18.8882 10.687
1 27.9177 18.0945 10.687
1 27.91 18.8856 9.88542
1 27.1323 18.1045 9.89488
1 28.7114 18.8882 10.687
1 29.5051 18.0945 10.687
1 29.5212 18.8827 9.88854
1 28.6986 18.0959 9.90918
1 0.298813 18.8882 10.687
1 1.09251 18.0945 10.687
1 1.07534 18.8925 9.88818
1 0.290747 18.1016 9.88695
1 1.88621 18.8882 10.687
1 2.67991 18.0945 10.687
1 2.68812 18.8901 9.8852
1 1.89579 18.12 9.89957
1 3.47361 18.8882 10.687
1 4.26732 18.0945 10.687
1 4.27097 18.8869 9.90985
1 3.48193 18.1177 9.89971
1 5.06102 18.8882 10.687
1 5.85472 18.0945 10.687
1 5.8532 18.889 9.89752
1 5.0611 18.0947 9.88495
1 6.64842 18.8882 10.687
1 7.44212 18.0945 10.687
1 7.43835 18.8933 9.90143
1 6.65932 18.1192 9.89715
1 8.23582 18.8882 10.687
1 9.02952 18.0945 10.687
1 8.9914 18.8981 9.90824
1 8.23047 18.0805 9.89647
1 9.82322 18.8882 10.687
1 10.6169 18.0945 10.687
1 10.5526 18.8881 9.87402
1 9.80414 18.1235 9.8702
1 11.25 17.3008 10.687
1 12.0437 16.5071 10.687
1 12.0606 17.2987 9.85497
1 11.2886 16.5197 9.82564
1 12.8374 17.3008 10.687
1 13.6311 16.5071 10.687
1 13.6355 17.2952 9.90755
1 12.8459 16.496 9.90439
1 14.4248 17.3008 10.687
1 15.2185 16.5071 10.687
1 15.2393 17.3399 9.90814
1 14.4494 16.5111 9.89838
1 16.0122 17.3008 10.687
1 16.8059 16.5071 10.687
1 16.7977 17.2885 9.89691
1 16.0128 16.5083 9.8659
1 17.5996 17.3008 10.687
1 18.3933 16.5071 10.687
1 18.3898 17.2832 9.89594
1 17.5809 16.4876 9.90028
1 19.187 17.3008 10.687
1 19.9807 16.5071 10.687
1 19.9615 17.3138 9.88117
1 19.1906 16.5033 9.89495
1 20.7744 17.3008 10.687
1 21.5681 16.5071 10.687
1 21.5718 17.2975 9.89494
1 20.7718 16.5386 9.90207
1 22.3618 17.3008 10.687
1 23.1555 16.5071 10.687
1 23.1469 17.2834 9.89358
1 22.3697 16.4997 9.88917
1 23.9492 17.3008 10.687
1 24.7429 16.5071 10.687
1 24.7559 17.302 9.90653
1 23.9547 16.523 9.8801
1 25.5366 17.3008 10.687
1 26.3303 16.5071 10.687
1 26.348 17.2764 9.88987
1 25.5259 16.4911 9.9015
1 27.124 17.3008 10.687
1 27.9177 16.5071 10.687
1 27.9221 17.312 9.89356
1 27.1486 16.5087 9.89786
1 28.7114 17.3008 10.687
1 29.5051 16.5071 10.687
1 29.5151 17.2794 9.90845
1 28.6965 16.4945 9.91509
1 0.298813 17.3008 10.687
1 1.09251 16.5071 10.687
1 1.12834 17.3437 9.90954
1 0.313657 16.5357 9.89481
1 1.88621 17.3008 10.687
1 2.67991 16.5071 10.687
1 2.65813 17.3084 9.89247
1 1.89012 16.4842 9.89919
1 3.47361 17.3008 10.687
1 4.26732 16.5071 10.687
1 4.25421 17.3093 9.91607
1 3.46449 16.5136 9.90494
1 5.06102 17.3008 10.687
1 5.85472 16.5071 10.687
1 5.89384 17.3294 9.89314
1 5.05714 16.5263 9.90217
1 6.64842 17.3008 10.687
1 7.44212 16.5071 10.687
1 7.43067 17.3173 9.8829
1 6.66676 16.5151 9.90946
1 8.23582 17.3008 10.687
1 9.02952 16.5071 10.687
1 9.02164 17.3063 9.8938
1 8.2221 16.5207 9.89948
1 9.82322 17.3008 10.687
1 10.6169 16.5071 10.687
1 10.5549 17.3286 9.85791
1 9.79162 16.5303 9.888
1 11.25 15.7134 10.687
1 12.0437 14.9197 10.687
1 12.0462 15.7193 9.87868
1 11.2942 14.9209 9.8573
1 12.8374 15.7134 10.687
1 13.6311 14.9197 10.687
1 13.6335 15.7011 9.88916
1 12.8597 14.88 9.88322
1 14.4248 15.7134 10.687
1 15.2185 14.9197 10.687
1 15.2187 15.6838 9.89771
1 14.4158 14.9194 9.89725
1 16.0122 15.7134 10.687
1 16.8059 14.9197 10.687
1 16.809 15.7256 9.90341
1 16.01 14.9516 9.92447
1 17.5996 15.7134 10.687
1 18.3933 14.9197 10.687
1 18.4319 15.7172 9.87679
1 17.6177 14.9243 9.89867
1 19.187 15.7134 10.687
1 19.9807 14.9197 10.687
1 19.9778 15.7266 9.8904
1 19.1974 14.9129 9.91527
1 20.7744 15.7134 10.687
1 21.5681 14.9197 10.687
1 21.5671 15.7101 9.89487
1 20.7557 14.9238 9.90025
1 22.3618 15.7134 10.687
1 23.1555 14.9197 10.687
1 23.1586 15.7142 9.89701
1 22.3516 14.9028 9.91222
1 23.9492 15.7134 10.687
1 24.7429 14.9197 10.687
1 24.723 15.7021 9.90416
1 23.9306 14.9135 9.89114
1 25.5366 15.7134 10.687
1 26.3303 14.9197 10.687
1 26.301 15.7083 9.89359
1 25.5446 14.9007 9.87971
1 27.124 15.7134 10.687
1 27.9177 14.9197 10.687
1 27.9442 15.6688 9.8863
1 27.1258 14.9066 9.90976
1 28.7114 15.7134 10.687
1 29.5051 14.9197 10.687
1 29.5281 15.733 9.88538
1 28.7212 14.916 9.88879
1 0.298813 15.7134 10.687
1 1.09251 14.9197 10.687
1 1.0829 15.7416 9.89677
1 0.290753 14.9415 9.89664
1 1.88621 15.7134 10.687
1 2.67991 14.9197 10.687
1 2.70604 15.6922 9.90158
1 1.88188 14.9266 9.88638
1 3.47361 15.7134 10.687
1 4.26732 14.9197 10.687
1 4.26296 15.7365 9.88809
1 3.46747 14.9175 9.901
1 5.06102 15.7134 10.687
1 5.85472 14.9197 10.687
1 5.85362 15.7089 9.89641
1 5.02503 14.9107 9.88406
1 6.64842 15.7134 10.687
1 7.44212 14.9197 10.687
1 7.41887 15.7239 9.88939
1 6.63905 14.9069 9.90256
1 8.23582 15.7134 10.687
1 9.02952 14.9197 10.687
1 8.99353 15.7131 9.85203
1 8.21933 14.9077 9.87619
1 9.82322 15.7134 10.687
1 10.6169 14.9197 10.687
1 10.5348 15.713 9.8548
1 9.80879 14.9079 9.86748
1 11.25 14.126 10.687
1 12.0437 13.3323 10.687
1 12.0404 14.1271 9.86635
1 11.304 13.3134 9.86103
1 12.8374 14.126 10.687
1 13.6311 13.3323 10.687
1 13.6367 14.1321 9.89248
1 12.8451 13.3372 9.89626
1 14.4248 14.126 10.687
1 15.2185 13.3323 10.687
1 15.2333 14.1257 9.87846
1 14.4586 13.3468 9.87114
1 16.0122 14.126 10.687
1 16.8059 13.3323 10.687
1 16.7863 14.1339 9.89478
1 16.0028 13.3231 9.918
1 17.5996 14.126 10.687
1 18.3933 13.3323 10.687
1 18.3838 14.1298 9.88813
1 17.5846 13.3472 9.89334
1 19.187 14.126 10.687
1 19.9807 13.3323 10.687
1 19.9528 14.1178 9.89461
1 19.1774 13.3273 9.88806
1 20.7744 14.126 10.687
1 21.5681 13.3323 10.687
1 21.5584 14.148 9.89183
1 20.7739 13.3454 9.90922
1 22.3618 14.126 10.687
1 23.1555 13.3323 10.687
1 23.1558 14.1409 9.91092
1 22.3612 13.3442 9.88797
1 23.9492 14.126 10.687
1 24.7429 13.3323 10.687
1 24.7534 14.1205 9.89524
1 23.9337 13.3536 9.87424
1 25.5366 14.126 10.687
1 26.3303 13.3323 10.687
1 26.3244 14.1197 9.88439
1 25.4991 13.3208 9.88476
1 27.124 14.126 10.687
1 27.9177 13.3323 10.687
1 27.9216 14.1168 9.89622
1 27.1311 13.3102 9.88422
1 28.7114 14.126 10.687
1 29.5051 13.3323 10.687
1 29.5134 14.1348 9.89947
1 28.7163 13.3395 9.89473
1 0.298813 14.126 10.687
1 1.09251 13.3323 10.687
1 1.09797 14.1287 9.87318
1 0.30945 13.3354 9.90573
1 1.88621 14.126 10.687
1 2.67991 13.3323 10.687
1 2.68081 14.1301 9.8869
1 1.88841 13.3506 9.88468
1 3.47361 14.126 10.687
1 4.26732 13.3323 10.687
1 4.23028 14.1257 9.88458
1 3.46959 13.3696 9.88928
1 5.06102 14.126 10.687
1 5.85472 13.3323 10.687
1 5.85672 14.1192 9.90579
1 5.04231 13.3354 9.90943
1 6.64842 14.126 10.687
1 7.44212 13.3323 10.687
1 7.41094 14.1068 9.88085
1 6.61692 13.3438 9.88158
1 8.23582 14.126 10.687
1 9.02952 13.3323 10.687
1 8.99976 14.1158 9.88958
1 8.21349 13.332 9.888
1 9.82322 14.126 10.687
1 10.6169 13.3323 10.687
1 10.5703 14.1211 9.83307
1 9.81205 13.3324 9.87591
1 11.25 12.5386 10.687
1 12.0437 11.7449 10.687
1 12.0931 12.521 9.90511
1 11.3071 11.7468 9.87597
1 12.8374 12.5386 10.687
1 13.6311 11.7449 10.687
1 13.6479 12.5439 9.87717
1 12.8709 11.7373 9.87964
1 14.4248 12.5386 10.687
1 15.2185 11.7449 10.687
1 15.2187 12.5387 9.90763
1 14.4335 11.7287 9.8974
1 16.0122 12.5386 10.687
1 16.8059 11.7449 10.687
1 16.8355 12.5301 9.88956
1 15.9962 11.7272 9.90582
1 17.5996 12.5386 10.687
1 18.3933 11.7449 10.687
1 18.3978 12.5279 9.89382
1 17.5989 11.7431 9.89373
1 19.187 12.5386 10.687
1 19.9807 11.7449 10.687
1 19.9767 12.5354 9.87791
1 19.1765 11.7457 9.89915
1 20.7744 12.5386 10.687
1 21.5681 11.7449 10.687
1 21.583 12.5203 9.89327
1 20.7798 11.7287 9.90123
1 22.3618 12.5386 10.687
1 23.1555 11.7449 10.687
1 23.1361 12.5456 9.90412
1 22.3629 11.7507 9.88526
1 23.9492 12.5386 10.687
1 24.7429 11.7449 10.687
1 24.7038 12.5512 9.89783
1 23.9298 11.7706 9.88898
1 25.5366 12.5386 10.687
1 26.3303 11.7449 10.687
1 26.3217 12.5493 9.88372
1 25.5076 11.7459 9.88149
1 27.124 12.5386 10.687
1 27.9177 11.7449 10.687
1 27.9138 12.526 9.87325
1 27.1293 11.7657 9.89342
1 28.7114 12.5386 10.687
1 29.5051 11.7449 10.687
1 29.5183 12.5434 9.88491
1 28.7001 11.7754 9.91067
1 0.298813 12.5386 10.687
1 1.09251 11.7449 10.687
1 1.1124 12.527 9.89675
1 0.286805 11.7533 9.88948
1 1.88621 12.5386 10.687
1 2.67991 11.7449 10.687
1 2.70679 12.5409 9.86746
1 1.86382 11.7513 9.8837
1 3.47361 12.5386 10.687
1 4.26732 11.7449 10.687
1 4.25342 12.5333 9.88371
1 3.46091 11.7243 9.90433
1 5.06102 12.5386 10.687
1 5.85472 11.7449 10.687
1 5.84056 12.5207 9.90434
1 5.04073 11.7438 9.89767
1 6.64842 12.5386 10.687
1 7.44212 11.7449 10.687
1 7.4513 12.5346 9.89953
1 6.64647 11.7511 9.88462
1 8.23582 12.5386 10.687
1 9.02952 11.7449 10.687
1 9.02149 12.5421 9.86602
1 8.23529 11.7341 9.88014
1 9.82322 12.5386 10.687
1 10.6169 11.7449 10.687
1 10.5414 12.5224 9.85511
1 9.78481 11.7358 9.89081
1 11.25 10.9512 10.687
1 12.0437 10.1575 10.687
1 12.0629 10.9476 9.86446
1 11.324 10.1318 9.84223
1 12.8374 10.9512 10.687
1 13.6311 10.1575 10.687
1 13.6363 10.9458 9.90013
1 12.8389 10.1695 9.88923
1 14.4248 10.9512 10.687
1 15.2185 10.1575 10.687
1 15.186 10.9508 9.88457
1 14.4247 10.148 9.90005
1 16.0122 10.9512 10.687
1 16.8059 10.1575 10.687
1 16.8236 10.9574 9.90643
1 16.0226 10.1461 9.87527
1 17.5996 10.9512 10.687
1 18.3933 10.1575 10.687
1 18.3782 10.9461 9.90126
1 17.622 10.1636 9.88239
1 19.187 10.9512 10.687
1 19.9807 10.1575 10.687
1 19.9741 10.9514 9.90709
1 19.1929 10.1708 9.89073
1 20.7744 10.9512 10.687
1 21.5681 10.1575 10.687
1 21.5937 10.951 9.90312
1 20.7841 10.1632 9.88841
1 22.3618 10.9512 10.687
1 23.1555 10.1575 10.687
1 23.1566 10.9583 9.88596
1 22.3664 10.1728 9.88105
1 23.9492 10.9512 10.687
1 24.7429 10.1575 10.687
1 24.7355 10.9577 9.91224
1 23.9566 10.1702 9.91097
1 25.5366 10.9512 10.687
1 26.3303 10.1575 10.687
1 26.3395 10.969 9.93606
1 25.5298 10.162 9.88366
1 27.124 10.9512 10.687
1 27.9177 10.1575 10.687
1 27.9124 10.9504 9.88849
1 27.1227 10.1607 9.881
1 28.7114 10.9512 10.687
1 29.5051 10.1575 10.687
1 29.522 10.9452 9.90385
1 28.7174 10.1439 9.90386
1 0.298813 10.9512 10.687
1 1.09251 10.1575 10.687
1 1.08942 10.9282 9.88976
1 0.277451 10.1651 9.88899
1 1.88621 10.9512 10.687
1 2.67991 10.1575 10.687
1 2.66238 10.9372 9.9036
1 1.8917 10.1435 9.86825
1 3.47361 10.9512 10.687
1 4.26732 10.1575 10.687
1 4.24995 10.9128 9.89331
1 3.43128 10.1435 9.89552
1 5.06102 10.9512 10.687
1 5.85472 10.1575 10.687
1 5.85786 10.9455 9.91106
1 5.07761 10.1617 9.92219
1 6.64842 10.9512 10.687
1 7.44212 10.1575 10.687
1 7.42531 10.9314 9.90468
1 6.64101 10.1475 9.89061
1 8.23582 10.9512 10.687
1 9.02952 10.1575 10.687
1 8.96926 10.9415 9.87556
1 8.23017 10.1462 9.87033
1 9.82322 10.9512 10.687
1 10.6169 10.1575 10.687
1 10.5576 10.9538 9.86231
1 9.78302 10.1753 9.87164
1 11.25 9.36379 10.687
1 12.0437 8.57009 10.687
1 12.0646 9.35978 9.87978
1 11.3103 8.59384 9.87216
1 12.8374 9.36379 10.687
1 13.6311 8.57009 10.687
1 13.6378 9.35603 9.91441
1 12.8563 8.57691 9.91028
1 14.4248 9.36379 10.687
1 15.2185 8.57009 10.687
1 15.2472 9.3214 9.90266
1 14.4386 8.58931 9.88896
1 16.0122 9.36379 10.687
1 16.8059 8.57009 10.687
1 16.8198 9.36477 9.89141
1 16.0352 8.56337 9.92415
1 17.5996 9.36379 10.687
1 18.3933 8.57009 10.687
1 18.4334 9.36515 9.90052
1 17.6214 8.58525 9.86885
1 19.187 9.36379 10.687
1 19.9807 8.57009 10.687
1 19.9988 9.36062 9.89382
1 19.2011 8.54879 9.90754
1 20.7744 9.36379 10.687
1 21.5681 8.57009 10.687
1 21.5679 9.36737 9.89854
1 20.7868 8.57441 9.89268
1 22.3618 9.36379 10.687
1 23.1555 8.57009 10.687
1 23.1621 9.37257 9.90517
1 22.3666 8.5538 9.91941
1 23.9492 9.36379 10.687
1 24.7429 8.57009 10.687
1 24.74 9.37779 9.89819
1 23.9477 8.55525 9.91072
1 25.5366 9.36379 10.687
1 26.3303 8.57009 10.687
1 26.3291 9.37178 9.88463
1 25.531 8.57316 9.88805
1 27.124 9.36379 10.687
1 27.9177 8.57009 10.687
1 27.9198 9.37582 9.88727
1 27.1297 8.59568 9.89408
1 28.7114 9.36379 10.687
1 29.5051 8.57009 10.687
1 29.5225 9.34107 9.91231
1 28.7198 8.55511 9.92355
1 0.298813 9.36379 10.687
1 1.09251 8.57009 10.687
1 1.09213 9.36726 9.87043
1 0.305678 8.56593 9.87607
1 1.88621 9.36379 10.687
1 2.67991 8.57009 10.687
1 2.6757 9.36142 9.85105
1 1.87438 8.5908 9.8959
1 3.47361 9.36379 10.687
1 4.26732 8.57009 10.687
1 4.25373 9.37606 9.89376
1 3.46807 8.5842 9.8831
1 5.06102 9.36379 10.687
1 5.85472 8.57009 10.687
1 5.83445 9.37056 9.89955
1 5.06886 8.558 9.91254
1 6.64842 9.36379 10.687
1 7.44212 8.57009 10.687
1 7.43519 9.34793 9.88522
1 6.65759 8.57342 9.89324
1 8.23582 9.36379 10.687
1 9.02952 8.57009 10.687
1 8.97936 9.35487 9.89225
1 8.20627 8.54842 9.87836
1 9.82322 9.36379 10.687
1 10.6169 8.57009 10.687
1 10.55 9.36284 9.86573
1 9.77819 8.57773 9.87075
1 11.25 7.77639 10.687
1 12.0437 6.98268 10.687
1 12.049 7.78241 9.88697
1 11.3025 6.98125 9.84269
1 12.8374 7.77639 10.687
1 13.6311 6.98268 10.687
1 13.611 7.78483 9.9084
1 12.8179 6.95314 9.87423
1 14.4248 7.77639 10.687
1 15.2185 6.98268 10.687
1 15.2051 7.76041 9.87316
1 14.4245 6.97779 9.8937
1 16.0122 7.77639 10.687
1 16.8059 6.98268 10.687
1 16.8101 7.78408 9.88109
1 16.0321 7.00289 9.90527
1 17.5996 7.77639 10.687
1 18.3933 6.98268 10.687
1 18.4033 7.77772 9.88327
1 17.6049 6.99158 9.90473
1 19.187 7.77639 10.687
1 19.9807 6.98268 10.687
1 19.9774 7.77955 9.89746
1 19.1956 6.99985 9.89689
1 20.7744 7.77639 10.687
1 21.5681 6.98268 10.687
1 21.5623 7.76089 9.89357
1 20.7612 7.00229 9.89424
1 22.3618 7.77639 10.687
1 23.1555 6.98268 10.687
1 23.1419 7.78672 9.90719
1 22.363 6.96454 9.89127
1 23.9492 7.77639 10.687
1 24.7429 6.98268 10.687
1 24.7446 7.7804 9.88631
1 23.962 6.97838 9.90419
1 25.5366 7.77639 10.687
1 26.3303 6.98268 10.687
1 26.3253 7.79555 9.89954
1 25.5462 6.96936 9.89888
1 27.124 7.77639 10.687
1 27.9177 6.98268 10.687
1 27.9016 7.77474 9.88248
1 27.116 6.99211 9.89003
1 28.7114 7.77639 10.687
1 29.5051 6.98268 10.687
1 29.4983 7.77741 9.8966
1 28.7019 6.98823 9.88266
1 0.298813 7.77639 10.687
1 1.09251 6.98268 10.687
1 1.08435 7.76835 9.87537
1 0.30375 7.00234 9.91201
1 1.88621 7.77639 10.687
1 2.67991 6.98268 10.687
1 2.68078 7.77101 9.89405
1 1.8888 7.01377 9.89277
1 3.47361 7.77639 10.687
1 4.26732 6.98268 10.687
1 4.26105 7.77023 9.88397
1 3.45739 6.98319 9.87636
1 5.06102 7.77639 10.687
1 5.85472 6.98268 10.687
1 5.85753 7.75298 9.92116
1 5.07471 6.9803 9.88259
1 6.64842 7.77639 10.687
1 7.44212 6.98268 10.687
1 7.42478 7.77453 9.88598
1 6.62912 6.97861 9.89869
1 8.23582 7.77639 10.687
1 9.02952 6.98268 10.687
1 9.00097 7.79087 9.89519
1 8.21306 6.99982 9.89141
1 9.82322 7.77639 10.687
1 10.6169 6.98268 10.687
1 10.5419 7.80259 9.87463
1 9.79287 6.98597 9.89156
1 11.25 6.18898 10.687
1 12.0437 5.39528 10.687
1 12.0775 6.20183 9.898
1 11.3174 5.38653 9.84025
1 12.8374 6.18898 10.687
1 13.6311 5.39528 10.687
1 13.6187 6.18429 9.90218
1 12.8559 5.39644 9.91102
1 14.4248 6.18898 10.687
1 15.2185 5.39528 10.687
1 15.2137 6.2013 9.89034
1 14.443 5.43041 9.90462
1 16.0122 6.18898 10.687
1 16.8059 5.39528 10.687
1 16.8145 6.18822 9.90671
1 16.0065 5.38412 9.90208
1 17.5996 6.18898 10.687
1 18.3933 5.39528 10.687
1 18.41 6.20528 9.88764
1 17.6069 5.39651 9.89743
1 19.187 6.18898 10.687
1 19.9807 5.39528 10.687
1 19.9847 6.18986 9.87891
1 19.2047 5.39404 9.89935
1 20.7744 6.18898 10.687
1 21.5681 5.39528 10.687
1 21.5718 6.19218 9.88116
1 20.7882 5.39567 9.90416
1 22.3618 6.18898 10.687
1 23.1555 5.39528 10.687
1 23.1738 6.19191 9.88837
1 22.3574 5.4086 9.89502
1 23.9492 6.18898 10.687
1 24.7429 5.39528 10.687
1 24.725 6.19199 9.87377
1 23.9377 5.3816 9.89517
1 25.5366 6.18898 10.687
1 26.3303 5.39528 10.687
1 26.3345 6.2058 9.88487
1 25.5426 5.40509 9.87831
1 27.124 6.18898 10.687
1 27.9177 5.39528 10.687