12976
Atoms. Timestep: 4000000
1 15 7.10543e-15 15.2934
1 15.7937 29.2063 15.2934
1 15.8291 29.9105 14.4314
1 15.0637 29.1556 14.4352
1 16.5874 7.10543e-15 15.2934
1 17.3811 29.2063 15.2934
1 17.3857 29.9395 14.4737
1 16.5881 29.1913 14.4863
1 18.1748 7.10543e-15 15.2934
1 18.9685 29.2063 15.2934
1 18.9993 29.9036 14.4543
1 18.1999 29.1812 14.5143
1 19.7622 7.10543e-15 15.2934
1 20.5559 29.2063 15.2934
1 20.5479 29.9125 14.4694
1 19.7439 29.1713 14.4656
1 21.3496 7.10543e-15 15.2934
1 22.1433 29.2063 15.2934
1 22.1489 29.9487 14.4896
1 21.3632 29.1902 14.4997
1 22.937 7.10543e-15 15.2934
1 23.7307 29.2063 15.2934
1 23.7443 29.8973 14.47
1 22.9407 29.1739 14.4999
1 24.5244 7.10543e-15 15.2934
1 25.3181 29.2063 15.2934
1 25.3418 29.9181 14.48
1 24.5443 29.1839 14.5198
1 26.1118 7.10543e-15 15.2934
1 26.9055 29.2063 15.2934
1 26.903 29.9259 14.4786
1 26.1116 29.1862 14.4949
1 27.6992 7.10543e-15 15.2934
1 28.4929 29.2063 15.2934
1 28.4776 29.9177 14.4608
1 27.6873 29.1488 14.503
1 29.2866 7.10543e-15 15.2934
1 0.08031 29.2063 15.2934
1 0.0744518 29.9506 14.484
1 29.2705 29.1602 14.5119
1 0.874011 7.10543e-15 15.2934
1 1.66771 29.2063 15.2934
1 1.6603 29.9487 14.454
1 0.891118 29.1718 14.5232
1 2.46141 7.10543e-15 15.2934
1 3.25511 29.2063 15.2934
1 3.24858 29.9378 14.456
1 2.46059 29.1856 14.4888
1 4.04881 7.10543e-15 15.2934
1 4.84251 29.2063 15.2934
1 4.8449 29.9363 14.4676
1 4.05717 29.1841 14.4856
1 5.63621 7.10543e-15 15.2934
1 6.42991 29.2063 15.2934
1 6.41224 29.9449 14.4479
1 5.6266 29.2052 14.4989
1 7.22361 7.10543e-15 15.2934
1 8.01732 29.2063 15.2934
1 8.0155 29.9064 14.4626
1 7.22558 29.1797 14.4849
1 8.81102 7.10543e-15 15.2934
1 9.60472 29.2063 15.2934
1 9.58919 29.9446 14.5214
1 8.82237 29.1838 14.4972
1 10.3984 7.10543e-15 15.2934
1 11.1921 29.2063 15.2934
1 11.1734 29.9307 14.4678
1 10.3937 29.1641 14.5199
1 11.9858 7.10543e-15 15.2934
1 12.7795 29.2063 15.2934
1 12.7688 29.9229 14.4848
1 11.9747 29.1533 14.5016
1 13.5732 7.10543e-15 15.2934
1 14.3669 29.2063 15.2934
1 14.3142 29.9292 14.4406
1 13.5417 29.1749 14.4845
1 15 28.4126 15.2934
1 15.7937 27.6189 15.2934
1 15.8196 28.4172 14.5127
1 15.072 27.5815 14.4797
1 16.5874 28.4126 15.2934
1 17.3811 27.6189 15.2934
1 17.4012 28.3782 14.476
1 16.5884 27.6123 14.5004
1 18.1748 28.4126 15.2934
1 18.9685 27.6189 15.2934
1 18.9722 28.3711 14.5025
1 18.1932 27.6002 14.473
1 19.7622 28.4126 15.2934
1 20.5559 27.6189 15.2934
1 20.5719 28.4014 14.4744
1 19.7748 27.6147 14.5078
1 21.3496 28.4126 15.2934
1 22.1433 27.6189 15.2934
1 22.1379 28.3766 14.5193
1 21.3537 27.6081 14.4514
1 22.937 28.4126 15.2934
1 23.7307 27.6189 15.2934
1 23.7289 28.3919 14.4906
1 22.9378 27.5635 14.5136
1 24.5244 28.4126 15.2934
1 25.3181 27.6189 15.2934
1 25.3304 28.3969 14.5074
1 24.5393 27.6158 14.5021
1 26.1118 28.4126 15.2934
1 26.9055 27.6189 15.2934
1 26.9017 28.4187 14.4914
1 26.1025 27.6115 14.5162
1 27.6992 28.4126 15.2934
1 28.4929 27.6189 15.2934
1 28.483 28.3871 14.5056
1 27.6897 27.5983 14.5138
1 29.2866 28.4126 15.2934
1 0.08031 27.6189 15.2934
1 0.0842153 28.3981 14.4929
1 29.272 27.5987 14.4805
1 0.874011 28.4126 15.2934
1 1.66771 27.6189 15.2934
1 1.67726 28.3908 14.4875
1 0.879661 27.5811 14.4842
1 2.46141 28.4126 15.2934
1 3.25511 27.6189 15.2934
1 3.27144 28.4003 14.5166
1 2.46578 27.6172 14.519
1 4.04881 28.4126 15.2934
1 4.84251 27.6189 15.2934
1 4.83429 28.3944 14.4956
1 4.04735 27.5806 14.5079
1 5.63621 28.4126 15.2934
1 6.42991 27.6189 15.2934
1 6.41616 28.3996 14.5067
1 5.61667 27.6127 14.4856
1 7.22361 28.4126 15.2934
1 8.01732 27.6189 15.2934
1 8.01695 28.409 14.4769
1 7.23476 27.6174 14.4856
1 8.81102 28.4126 15.2934
1 9.60472 27.6189 15.2934
1 9.60779 28.4059 14.4792
1 8.83295 27.6008 14.517
1 10.3984 28.4126 15.2934
1 11.1921 27.6189 15.2934
1 11.1805 28.3833 14.5009
1 10.3801 27.6067 14.4881
1 11.9858 28.4126 15.2934
1 12.7795 27.6189 15.2934
1 12.7709 28.4033 14.4843
1 11.9643 27.6136 14.478
1 13.5732 28.4126 15.2934
1 14.3669 27.6189 15.2934
1 14.2995 28.3754 14.4577
1 13.567 27.5977 14.5027
1 15 26.8252 15.2934
1 15.7937 26.0315 15.2934
1 15.8291 26.7928 14.4857
1 15.0436 26.0278 14.4853
1 16.5874 26.8252 15.2934
1 17.3811 26.0315 15.2934
1 17.3768 26.8194 14.5132
1 16.6036 26.0203 14.4995
1 18.1748 26.8252 15.2934
1 18.9685 26.0315 15.2934
1 18.9865 26.7858 14.4779
1 18.1575 26.0141 14.5261
1 19.7622 26.8252 15.2934
1 20.5559 26.0315 15.2934
1 20.5812 26.7838 14.4962
1 19.7856 26.0062 14.5198
1 21.3496 26.8252 15.2934
1 22.1433 26.0315 15.2934
1 22.15 26.8215 14.5182
1 21.3623 26.0077 14.4973
1 22.937 26.8252 15.2934
1 23.7307 26.0315 15.2934
1 23.7284 26.8155 14.5037
1 22.9307 26.0568 14.5036
1 24.5244 26.8252 15.2934
1 25.3181 26.0315 15.2934
1 25.327 26.8316 14.5232
1 24.5268 26.0325 14.5054
1 26.1118 26.8252 15.2934
1 26.9055 26.0315 15.2934
1 26.9228 26.8274 14.4819
1 26.1197 26.0277 14.4955
1 27.6992 26.8252 15.2934
1 28.4929 26.0315 15.2934
1 28.4894 26.8158 14.4742
1 27.6907 26.0539 14.4988
1 29.2866 26.8252 15.2934
1 0.08031 26.0315 15.2934
1 0.090319 26.8005 14.5032
1 29.2776 26.0249 14.4987
1 0.874011 26.8252 15.2934
1 1.66771 26.0315 15.2934
1 1.66807 26.8242 14.498
1 0.869803 26.0314 14.466
1 2.46141 26.8252 15.2934
1 3.25511 26.0315 15.2934
1 3.23814 26.8142 14.4793
1 2.46427 26.0311 14.4906
1 4.04881 26.8252 15.2934
1 4.84251 26.0315 15.2934
1 4.83886 26.8078 14.5144
1 4.02314 26.0098 14.5087
1 5.63621 26.8252 15.2934
1 6.42991 26.0315 15.2934
1 6.42515 26.8118 14.4929
1 5.64286 26.0202 14.496
1 7.22361 26.8252 15.2934
1 8.01732 26.0315 15.2934
1 8.00564 26.7891 14.494
1 7.23527 26.0143 14.4936
1 8.81102 26.8252 15.2934
1 9.60472 26.0315 15.2934
1 9.62904 26.8119 14.49
1 8.82827 25.9945 14.4981
1 10.3984 26.8252 15.2934
1 11.1921 26.0315 15.2934
1 11.179 26.8223 14.5166
1 10.4088 26.0064 14.504
1 11.9858 26.8252 15.2934
1 12.7795 26.0315 15.2934
1 12.7668 26.8113 14.5008
1 11.9703 26.0226 14.5082
1 13.5732 26.8252 15.2934
1 14.3669 26.0315 15.2934
1 14.3233 26.8043 14.4644
1 13.58 26.0417 14.4867
1 15 25.2378 15.2934
1 15.7937 24.4441 15.2934
1 15.8179 25.2385 14.4897
1 15.0538 24.4256 14.4426
1 16.5874 25.2378 15.2934
1 17.3811 24.4441 15.2934
1 17.3793 25.2068 14.4825
1 16.6085 24.4191 14.4886
1 18.1748 25.2378 15.2934
1 18.9685 24.4441 15.2934
1 18.965 25.2382 14.4917
1 18.1798 24.4425 14.5111
1 19.7622 25.2378 15.2934
1 20.5559 24.4441 15.2934
1 20.5877 25.2229 14.5019
1 19.7632 24.4475 14.5309
1 21.3496 25.2378 15.2934
1 22.1433 24.4441 15.2934
1 22.1639 25.2273 14.4989
1 21.3343 24.421 14.5059
1 22.937 25.2378 15.2934
1 23.7307 24.4441 15.2934
1 23.7389 25.2437 14.4987
1 22.9568 24.4392 14.5017
1 24.5244 25.2378 15.2934
1 25.3181 24.4441 15.2934
1 25.3219 25.2625 14.5047
1 24.5341 24.421 14.4918
1 26.1118 25.2378 15.2934
1 26.9055 24.4441 15.2934
1 26.9164 25.2409 14.511
1 26.0965 24.4684 14.4919
1 27.6992 25.2378 15.2934
1 28.4929 24.4441 15.2934
1 28.4765 25.2332 14.5037
1 27.7013 24.4611 14.5139
1 29.2866 25.2378 15.2934
1 0.08031 24.4441 15.2934
1 0.0578029 25.2567 14.4875
1 29.2931 24.436 14.4996
1 0.874011 25.2378 15.2934
1 1.66771 24.4441 15.2934
1 1.67608 25.2718 14.5099
1 0.867082 24.4533 14.4873
1 2.46141 25.2378 15.2934
1 3.25511 24.4441 15.2934
1 3.22817 25.2101 14.4859
1 2.41407 24.4463 14.4843
1 4.04881 25.2378 15.2934
1 4.84251 24.4441 15.2934
1 4.86244 25.2448 14.5071
1 4.05216 24.4386 14.4645
1 5.63621 25.2378 15.2934
1 6.42991 24.4441 15.2934
1 6.44195 25.2436 14.4778
1 5.61727 24.4356 14.5103
1 7.22361 25.2378 15.2934
1 8.01732 24.4441 15.2934
1 8.0231 25.2083 14.4981
1 7.21459 24.445 14.4949
1 8.81102 25.2378 15.2934
1 9.60472 24.4441 15.2934
1 9.60835 25.2328 14.504
1 8.83266 24.4161 14.485
1 10.3984 25.2378 15.2934
1 11.1921 24.4441 15.2934
1 11.1655 25.2164 14.4809
1 10.4071 24.4261 14.4938
1 11.9858 25.2378 15.2934
1 12.7795 24.4441 15.2934
1 12.7455 25.2421 14.5204
1 11.9709 24.4437 14.4871
1 13.5732 25.2378 15.2934
1 14.3669 24.4441 15.2934
1 14.289 25.2435 14.4696
1 13.5599 24.4536 14.4876
1 15 23.6504 15.2934
1 15.7937 22.8567 15.2934
1 15.8306 23.668 14.4808
1 15.0803 22.8451 14.4801
1 16.5874 23.6504 15.2934
1 17.3811 22.8567 15.2934
1 17.4022 23.6172 14.4902
1 16.5963 22.851 14.4859
1 18.1748 23.6504 15.2934
1 18.9685 22.8567 15.2934
1 18.9919 23.6512 14.5204
1 18.204 22.8392 14.4785
1 19.7622 23.6504 15.2934
1 20.5559 22.8567 15.2934
1 20.5565 23.629 14.4963
1 19.7928 22.8338 14.5102
1 21.3496 23.6504 15.2934
1 22.1433 22.8567 15.2934
1 22.1504 23.6665 14.4951
1 21.376 22.8706 14.5099
1 22.937 23.6504 15.2934
1 23.7307 22.8567 15.2934
1 23.7615 23.6466 14.5015
1 22.9529 22.873 14.5212
1 24.5244 23.6504 15.2934
1 25.3181 22.8567 15.2934
1 25.3192 23.6638 14.4918
1 24.514 22.8486 14.5029
1 26.1118 23.6504 15.2934
1 26.9055 22.8567 15.2934
1 26.887 23.6533 14.5441
1 26.099 22.8525 14.4976
1 27.6992 23.6504 15.2934
1 28.4929 22.8567 15.2934
1 28.4957 23.6556 14.5148
1 27.6907 22.8601 14.5044
1 29.2866 23.6504 15.2934
1 0.08031 22.8567 15.2934
1 0.0991444 23.6405 14.5063
1 29.2937 22.8808 14.4863
1 0.874011 23.6504 15.2934
1 1.66771 22.8567 15.2934
1 1.66927 23.6296 14.4903
1 0.864502 22.8533 14.5113
1 2.46141 23.6504 15.2934
1 3.25511 22.8567 15.2934
1 3.24309 23.6784 14.5004
1 2.4658 22.8684 14.4904
1 4.04881 23.6504 15.2934
1 4.84251 22.8567 15.2934
1 4.84272 23.6334 14.5155
1 4.02857 22.8544 14.5056
1 5.63621 23.6504 15.2934
1 6.42991 22.8567 15.2934
1 6.40613 23.6562 14.4791
1 5.64982 22.8468 14.4791
1 7.22361 23.6504 15.2934
1 8.01732 22.8567 15.2934
1 8.01943 23.6632 14.5349
1 7.21679 22.8565 14.4847
1 8.81102 23.6504 15.2934
1 9.60472 22.8567 15.2934
1 9.61729 23.655 14.4939
1 8.81136 22.8771 14.5332
1 10.3984 23.6504 15.2934
1 11.1921 22.8567 15.2934
1 11.1943 23.6274 14.5135
1 10.3845 22.8393 14.5209
1 11.9858 23.6504 15.2934
1 12.7795 22.8567 15.2934
1 12.7548 23.6647 14.487
1 11.9517 22.8712 14.5018
1 13.5732 23.6504 15.2934
1 14.3669 22.8567 15.2934
1 14.2922 23.6479 14.4201
1 13.5125 22.8403 14.5086
1 15 22.063 15.2934
1 15.7937 21.2693 15.2934
1 15.8512 22.0637 14.4909
1 15.0893 21.2998 14.4897
1 16.5874 22.063 15.2934
1 17.3811 21.2693 15.2934
1 17.3831 22.0612 14.4939
1 16.6308 21.2881 14.4814
1 18.1748 22.063 15.2934
1 18.9685 21.2693 15.2934
1 18.9647 22.0545 14.5044
1 18.1625 21.2757 14.506
1 19.7622 22.063 15.2934
1 20.5559 21.2693 15.2934
1 20.5752 22.059 14.5096
1 19.7539 21.2709 14.5157
1 21.3496 22.063 15.2934
1 22.1433 21.2693 15.2934
1 22.1675 22.0762 14.5039
1 21.3574 21.2823 14.516
1 22.937 22.063 15.2934
1 23.7307 21.2693 15.2934
1 23.7204 22.0814 14.5044
1 22.9385 21.2692 14.5071
1 24.5244 22.063 15.2934
1 25.3181 21.2693 15.2934
1 25.3246 22.0426 14.5121
1 24.4992 21.2572 14.4946
1 26.1118 22.063 15.2934
1 26.9055 21.2693 15.2934
1 26.8966 22.0708 14.4953
1 26.1108 21.2629 14.4865
1 27.6992 22.063 15.2934
1 28.4929 21.2693 15.2934
1 28.493 22.0749 14.5119
1 27.6991 21.2731 14.4842
1 29.2866 22.063 15.2934
1 0.08031 21.2693 15.2934
1 0.0648606 22.0631 14.501
1 29.2725 21.2451 14.5135
1 0.874011 22.063 15.2934
1 1.66771 21.2693 15.2934
1 1.67717 22.073 14.4974
1 0.879066 21.2759 14.5168
1 2.46141 22.063 15.2934
1 3.25511 21.2693 15.2934
1 3.24451 22.0412 14.5061
1 2.46054 21.2678 14.4998
1 4.04881 22.063 15.2934
1 4.84251 21.2693 15.2934
1 4.84687 22.0414 14.4927
1 4.03973 21.2412 14.4937
1 5.63621 22.063 15.2934
1 6.42991 21.2693 15.2934
1 6.37303 22.0739 14.5132
1 5.61354 21.2622 14.5052
1 7.22361 22.063 15.2934
1 8.01732 21.2693 15.2934
1 8.02582 22.0647 14.4991
1 7.22525 21.2837 14.5054
1 8.81102 22.063 15.2934
1 9.60472 21.2693 15.2934
1 9.59493 22.0682 14.5078
1 8.80921 21.2437 14.5273
1 10.3984 22.063 15.2934
1 11.1921 21.2693 15.2934
1 11.2095 22.0674 14.5026
1 10.3952 21.2677 14.5005
1 11.9858 22.063 15.2934
1 12.7795 21.2693 15.2934
1 12.7683 22.0591 14.4877
1 11.9766 21.2561 14.4951
1 13.5732 22.063 15.2934
1 14.3669 21.2693 15.2934
1 14.2914 22.0764 14.4621
1 13.5376 21.2502 14.51
1 15 20.4756 15.2934
1 15.7937 19.6819 15.2934
1 15.8459 20.4838 14.4976
1 15.0555 19.7187 14.4679
1 16.5874 20.4756 15.2934
1 17.3811 19.6819 15.2934
1 17.3839 20.479 14.5174
1 16.6086 19.6883 14.4971
1 18.1748 20.4756 15.2934
1 18.9685 19.6819 15.2934
1 18.972 20.4704 14.4959
1 18.1631 19.6572 14.4785
1 19.7622 20.4756 15.2934
1 20.5559 19.6819 15.2934
1 20.5698 20.4921 14.5049
1 19.7677 19.6941 14.4718
1 21.3496 20.4756 15.2934
1 22.1433 19.6819 15.2934
1 22.1443 20.4722 14.4801
1 21.3574 19.711 14.5068
1 22.937 20.4756 15.2934
1 23.7307 19.6819 15.2934
1 23.7238 20.5054 14.4951
1 22.9443 19.7113 14.5025
1 24.5244 20.4756 15.2934
1 25.3181 19.6819 15.2934
1 25.314 20.4797 14.4971
1 24.5338 19.6784 14.4925
1 26.1118 20.4756 15.2934
1 26.9055 19.6819 15.2934
1 26.9125 20.4992 14.5106
1 26.108 19.6931 14.486
1 27.6992 20.4756 15.2934
1 28.4929 19.6819 15.2934
1 28.4781 20.4805 14.5168
1 27.7028 19.6506 14.4952
1 29.2866 20.4756 15.2934
1 0.08031 19.6819 15.2934
1 0.0822845 20.4686 14.4976
1 29.2895 19.6765 14.4988
1 0.874011 20.4756 15.2934
1 1.66771 19.6819 15.2934
1 1.6457 20.49 14.4826
1 0.893268 19.6823 14.4947
1 2.46141 20.4756 15.2934
1 3.25511 19.6819 15.2934
1 3.25206 20.4852 14.494
1 2.45705 19.7142 14.5006
1 4.04881 20.4756 15.2934
1 4.84251 19.6819 15.2934
1 4.83766 20.4821 14.5109
1 4.05368 19.6669 14.507
1 5.63621 20.4756 15.2934
1 6.42991 19.6819 15.2934
1 6.41549 20.496 14.5075
1 5.65044 19.6977 14.5103
1 7.22361 20.4756 15.2934
1 8.01732 19.6819 15.2934
1 8.03293 20.4821 14.5065
1 7.21324 19.6659 14.5162
1 8.81102 20.4756 15.2934
1 9.60472 19.6819 15.2934
1 9.61382 20.4622 14.5163
1 8.77413 19.6846 14.4972
1 10.3984 20.4756 15.2934
1 11.1921 19.6819 15.2934
1 11.1732 20.4413 14.5034
1 10.369 19.6782 14.4854
1 11.9858 20.4756 15.2934
1 12.7795 19.6819 15.2934
1 12.7524 20.4974 14.5064
1 11.9674 19.691 14.5025
1 13.5732 20.4756 15.2934
1 14.3669 19.6819 15.2934
1 14.3209 20.4678 14.4759
1 13.5658 19.6996 14.4812
1 15 18.8882 15.2934
1 15.7937 18.0945 15.2934
1 15.8208 18.9112 14.5004
1 15.0727 18.084 14.4814
1 16.5874 18.8882 15.2934
1 17.3811 18.0945 15.2934
1 17.3598 18.9007 14.5097
1 16.6112 18.0945 14.4914
1 18.1748 18.8882 15.2934
1 18.9685 18.0945 15.2934
1 18.9825 18.8769 14.5266
1 18.1716 18.1078 14.5137
1 19.7622 18.8882 15.2934
1 20.5559 18.0945 15.2934
1 20.5611 18.8716 14.4951
1 19.7511 18.0575 14.5091
1 21.3496 18.8882 15.2934
1 22.1433 18.0945 15.2934
1 22.1335 18.8947 14.4841
1 21.3541 18.0755 14.5091
1 22.937 18.8882 15.2934
1 23.7307 18.0945 15.2934
1 23.7209 18.8918 14.4849
1 22.9238 18.099 14.4862
1 24.5244 18.8882 15.2934
1 25.3181 18.0945 15.2934
1 25.3171 18.8924 14.5056
1 24.5319 18.1116 14.5083
1 26.1118 18.8882 15.2934
1 26.9055 18.0945 15.2934
1 26.905 18.8855 14.4999
1 26.1036 18.0709 14.4932
1 27.6992 18.8882 15.2934
1 28.4929 18.0945 15.2934
1 28.4958 18.8845 14.5139
1 27.6935 18.0781 14.5223
1 29.2866 18.8882 15.2934
1 0.08031 18.0945 15.2934
1 0.0847279 18.9027 14.5098
1 29.2788 18.1208 14.5026
1 0.874011 18.8882 15.2934
1 1.66771 18.0945 15.2934
1 1.67991 18.9086 14.4831
1 0.856436 18.0992 14.5095
1 2.46141 18.8882 15.2934
1 3.25511 18.0945 15.2934
1 3.26425 18.902 14.4886
1 2.48943 18.1266 14.5121
1 4.04881 18.8882 15.2934
1 4.84251 18.0945 15.2934
1 4.86612 18.9047 14.4997
1 4.06051 18.0861 14.4988
1 5.63621 18.8882 15.2934
1 6.42991 18.0945 15.2934
1 6.44208 18.8717 14.5024
1 5.65473 18.0946 14.4818
1 7.22361 18.8882 15.2934
1 8.01732 18.0945 15.2934
1 8.01221 18.9005 14.507
1 7.2256 18.1201 14.5063
1 8.81102 18.8882 15.2934
1 9.60472 18.0945 15.2934
1 9.58789 18.9057 14.4971
1 8.80416 18.1099 14.493
1 10.3984 18.8882 15.2934
1 11.1921 18.0945 15.2934
1 11.1982 18.8946 14.5007
1 10.4116 18.0767 14.5123
1 11.9858 18.8882 15.2934
1 12.7795 18.0945 15.2934
1 12.7847 18.8707 14.5067
1 11.9459 18.0903 14.5113
1 13.5732 18.8882 15.2934
1 14.3669 18.0945 15.2934
1 14.3338 18.8818 14.4808
1 13.5511 18.0886 14.4946
1 15 17.3008 15.2934
1 15.7937 16.5071 15.2934
1 15.8359 17.2934 14.501
1 15.0711 16.4991 14.4479
1 16.5874 17.3008 15.2934
1 17.3811 16.5071 15.2934
1 17.4053 17.302 14.4919
1 16.6099 16.52 14.5166
1 18.1748 17.3008 15.2934
1 18.9685 16.5071 15.2934
1 18.9814 17.263 14.5095
1 18.1802 16.5062 14.5175
1 19.7622 17.3008 15.2934
1 20.5559 16.5071 15.2934
1 20.561 17.2951 14.5093
1 19.7585 16.5005 14.5058
1 21.3496 17.3008 15.2934
1 22.1433 16.5071 15.2934
1 22.1556 17.326 14.5179
1 21.3822 16.5229 14.5165
1 22.937 17.3008 15.2934
1 23.7307 16.5071 15.2934
1 23.7275 17.3242 14.538
1 22.9387 16.5017 14.5102
1 24.5244 17.3008 15.2934
1 25.3181 16.5071 15.2934
1 25.3067 17.3376 14.4697
1 24.5205 16.5338 14.507
1 26.1118 17.3008 15.2934
1 26.9055 16.5071 15.2934
1 26.9152 17.3119 14.5134
1 26.098 16.5481 14.4909
1 27.6992 17.3008 15.2934
1 28.4929 16.5071 15.2934
1 28.5118 17.3165 14.5179
1 27.6936 16.5296 14.5016
1 29.2866 17.3008 15.2934
1 0.08031 16.5071 15.2934
1 0.0909138 17.2918 14.5101
1 29.2723 16.4984 14.5322
1 0.874011 17.3008 15.2934
1 1.66771 16.5071 15.2934
1 1.65112 17.3104 14.5043
1 0.878734 16.5153 14.4944
1 2.46141 17.3008 15.2934
1 3.25511 16.5071 15.2934
1 3.26333 17.3082 14.4933
1 2.45206 16.5201 14.506
1 4.04881 17.3008 15.2934
1 4.84251 16.5071 15.2934
1 4.83705 17.304 14.4953
1 4.03271 16.5097 14.4896
1 5.63621 17.3008 15.2934
1 6.42991 16.5071 15.2934
1 6.42932 17.3264 14.4948
1 5.61622 16.4924 14.5108
1 7.22361 17.3008 15.2934
1 8.01732 16.5071 15.2934
1 8.03234 17.2922 14.5071
1 7.21193 16.4925 14.5164
1 8.81102 17.3008 15.2934
1 9.60472 16.5071 15.2934
1 9.58635 17.2908 14.5036
1 8.81468 16.5047 14.5027
1 10.3984 17.3008 15.2934
1 11.1921 16.5071 15.2934
1 11.1835 17.2873 14.5061
1 10.3995 16.5052 14.519
1 11.9858 17.3008 15.2934
1 12.7795 16.5071 15.2934
1 12.7805 17.2873 14.4918
1 11.9798 16.4982 14.4697
1 13.5732 17.3008 15.2934
1 14.3669 16.5071 15.2934
1 14.3064 17.2909 14.4521
1 13.5109 16.4846 14.465
1 15 15.7134 15.2934
1 15.7937 14.9197 15.2934
1 15.8276 15.7338 14.4817
1 15.1005 14.9098 14.4503
1 16.5874 15.7134 15.2934
1 17.3811 14.9197 15.2934
1 17.393 15.7101 14.4827
1 16.6032 14.9278 14.5084
1 18.1748 15.7134 15.2934
1 18.9685 14.9197 15.2934
1 18.9708 15.6988 14.4906
1 18.1873 14.9025 14.5016
1 19.7622 15.7134 15.2934
1 20.5559 14.9197 15.2934
1 20.5588 15.719 14.499
1 19.7769 14.9299 14.522
1 21.3496 15.7134 15.2934
1 22.1433 14.9197 15.2934
1 22.1581 15.7153 14.5023
1 21.3467 14.9486 14.5258
1 22.937 15.7134 15.2934
1 23.7307 14.9197 15.2934
1 23.7362 15.7391 14.4795
1 22.9338 14.9304 14.5015
1 24.5244 15.7134 15.2934
1 25.3181 14.9197 15.2934
1 25.3151 15.7342 14.5047
1 24.5192 14.9344 14.5132
1 26.1118 15.7134 15.2934
1 26.9055 14.9197 15.2934
1 26.8889 15.716 14.5044
1 26.1214 14.9303 14.5118
1 27.6992 15.7134 15.2934
1 28.4929 14.9197 15.2934
1 28.4948 15.7062 14.531
1 27.7105 14.8934 14.4874
1 29.2866 15.7134 15.2934
1 0.08031 14.9197 15.2934
1 0.0852218 15.7036 14.4953
1 29.2984 14.8818 14.493
1 0.874011 15.7134 15.2934
1 1.66771 14.9197 15.2934
1 1.67502 15.682 14.4945
1 0.87504 14.9051 14.5098
1 2.46141 15.7134 15.2934
1 3.25511 14.9197 15.2934
1 3.23502 15.697 14.5299
1 2.46493 14.9016 14.5052
1 4.04881 15.7134 15.2934
1 4.84251 14.9197 15.2934
1 4.83208 15.7079 14.5103
1 4.05428 14.9148 14.5171
1 5.63621 15.7134 15.2934
1 6.42991 14.9197 15.2934
1 6.41493 15.7179 14.501
1 5.65038 14.9435 14.5008
1 7.22361 15.7134 15.2934
1 8.01732 14.9197 15.2934
1 8.00343 15.742 14.4888
1 7.21516 14.9333 14.5104
1 8.81102 15.7134 15.2934
1 9.60472 14.9197 15.2934
1 9.61122 15.6963 14.5155
1 8.82294 14.9308 14.5047
1 10.3984 15.7134 15.2934
1 11.1921 14.9197 15.2934
1 11.174 15.6939 14.4964
1 10.407 14.9046 14.5299
1 11.9858 15.7134 15.2934
1 12.7795 14.9197 15.2934
1 12.7345 15.7066 14.5255
1 11.9585 14.9289 14.5293
1 13.5732 15.7134 15.2934
1 14.3669 14.9197 15.2934
1 14.3153 15.729 14.494
1 13.557 14.9274 14.4811
1 15 14.126 15.2934
1 15.7937 13.3323 15.2934
1 15.8411 14.1209 14.4781
1 15.0731 13.3463 14.4579
1 16.5874 14.126 15.2934
1 17.3811 13.3323 15.2934
1 17.3932 14.1264 14.5385
1 16.5974 13.3165 14.4847
1 18.1748 14.126 15.2934
1 18.9685 13.3323 15.2934
1 18.9785 14.1191 14.5047
1 18.1792 13.3172 14.4829
1 19.7622 14.126 15.2934
1 20.5559 13.3323 15.2934
1 20.5743 14.121 14.5289
1 19.7768 13.3461 14.4916
1 21.3496 14.126 15.2934
1 22.1433 13.3323 15.2934
1 22.1399 14.1452 14.5284
1 21.3392 13.321 14.5123
1 22.937 14.126 15.2934
1 23.7307 13.3323 15.2934
1 23.7369 14.141 14.5038
1 22.9324 13.3236 14.4804
1 24.5244 14.126 15.2934
1 25.3181 13.3323 15.2934
1 25.3301 14.1469 14.5048
1 24.5323 13.3219 14.5196
1 26.1118 14.126 15.2934
1 26.9055 13.3323 15.2934
1 26.8766 14.1289 14.4962
1 26.117 13.3376 14.4879
1 27.6992 14.126 15.2934
1 28.4929 13.3323 15.2934
1 28.4969 14.1104 14.481
1 27.7037 13.3246 14.4927
1 29.2866 14.126 15.2934
1 0.08031 13.3323 15.2934
1 0.0809916 14.0975 14.5052
1 29.2958 13.3181 14.4934
1 0.874011 14.126 15.2934
1 1.66771 13.3323 15.2934
1 1.6657 14.1009 14.4925
1 0.870606 13.3308 14.4992
1 2.46141 14.126 15.2934
1 3.25511 13.3323 15.2934
1 3.28291 14.123 14.506
1 2.47986 13.3281 14.4951
1 4.04881 14.126 15.2934
1 4.84251 13.3323 15.2934
1 4.86678 14.1316 14.5238
1 4.05763 13.3356 14.5083
1 5.63621 14.126 15.2934
1 6.42991 13.3323 15.2934
1 6.42875 14.1059 14.5062
1 5.63513 13.3091 14.4986
1 7.22361 14.126 15.2934
1 8.01732 13.3323 15.2934
1 7.99084 14.1203 14.5045
1 7.20766 13.3282 14.5134
1 8.81102 14.126 15.2934
1 9.60472 13.3323 15.2934
1 9.59003 14.1482 14.4962
1 8.78848 13.3576 14.4978
1 10.3984 14.126 15.2934
1 11.1921 13.3323 15.2934
1 11.1757 14.1283 14.4887
1 10.3608 13.3474 14.5109
1 11.9858 14.126 15.2934
1 12.7795 13.3323 15.2934
1 12.7784 14.1325 14.5063
1 11.9639 13.3514 14.5042
1 13.5732 14.126 15.2934
1 14.3669 13.3323 15.2934
1 14.2739 14.1326 14.4503
1 13.5255 13.354 14.493
1 15 12.5386 15.2934
1 15.7937 11.7449 15.2934
1 15.806 12.5395 14.5218
1 15.0662 11.7524 14.465
1 16.5874 12.5386 15.2934
1 17.3811 11.7449 15.2934
1 17.409 12.5106 14.5139
1 16.6283 11.7524 14.4941
1 18.1748 12.5386 15.2934
1 18.9685 11.7449 15.2934
1 18.955 12.5364 14.4698
1 18.1785 11.7055 14.4958
1 19.7622 12.5386 15.2934
1 20.5559 11.7449 15.2934
1 20.5432 12.5442 14.4975
1 19.7579 11.7602 14.4901
1 21.3496 12.5386 15.2934
1 22.1433 11.7449 15.2934
1 22.1536 12.5515 14.4943
1 21.3491 11.7499 14.5029
1 22.937 12.5386 15.2934
1 23.7307 11.7449 15.2934
1 23.7288 12.5474 14.4996
1 22.9389 11.7505 14.5104
1 24.5244 12.5386 15.2934
1 25.3181 11.7449 15.2934
1 25.3116 12.5642 14.4921
1 24.5101 11.7429 14.4973
1 26.1118 12.5386 15.2934
1 26.9055 11.7449 15.2934
1 26.8779 12.5472 14.5142
1 26.1242 11.7611 14.5021
1 27.6992 12.5386 15.2934
1 28.4929 11.7449 15.2934
1 28.4795 12.5347 14.5089
1 27.7018 11.7509 14.4919
1 29.2866 12.5386 15.2934
1 0.08031 11.7449 15.2934
1 0.0734792 12.528 14.4995
1 29.2982 11.7332 14.5063
1 0.874011 12.5386 15.2934
1 1.66771 11.7449 15.2934
1 1.67801 12.5164 14.4936
1 0.845294 11.737 14.4855
1 2.46141 12.5386 15.2934
1 3.25511 11.7449 15.2934
1 3.2825 12.5241 14.5
1 2.45964 11.7106 14.4787
1 4.04881 12.5386 15.2934
1 4.84251 11.7449 15.2934
1 4.82426 12.531 14.4913
1 4.07391 11.7235 14.4827
1 5.63621 12.5386 15.2934
1 6.42991 11.7449 15.2934
1 6.44441 12.5331 14.4772
1 5.62718 11.7392 14.4939
1 7.22361 12.5386 15.2934
1 8.01732 11.7449 15.2934
1 7.9914 12.5489 14.5028
1 7.20515 11.7293 14.5225
1 8.81102 12.5386 15.2934
1 9.60472 11.7449 15.2934
1 9.56937 12.5567 14.5181
1 8.80672 11.7345 14.5192
1 10.3984 12.5386 15.2934
1 11.1921 11.7449 15.2934
1 11.1779 12.5505 14.5141
1 10.3991 11.7385 14.5128
1 11.9858 12.5386 15.2934
1 12.7795 11.7449 15.2934
1 12.7598 12.5478 14.5067
1 11.9744 11.7518 14.4827
1 13.5732 12.5386 15.2934
1 14.3669 11.7449 15.2934
1 14.2863 12.5409 14.4775
1 13.5326 11.709 14.4784
1 15 10.9512 15.2934
1 15.7937 10.1575 15.2934
1 15.813 10.9556 14.4996
1 15.0846 10.1371 14.4723
1 16.5874 10.9512 15.2934
1 17.3811 10.1575 15.2934
1 17.3884 10.9356 14.5148
1 16.5703 10.1396 14.4956
1 18.1748 10.9512 15.2934
1 18.9685 10.1575 15.2934
1 18.9832 10.9407 14.4924
1 18.1813 10.1375 14.4896
1 19.7622 10.9512 15.2934
1 20.5559 10.1575 15.2934
1 20.5608 10.9547 14.4917
1 19.7756 10.1382 14.4903
1 21.3496 10.9512 15.2934
1 22.1433 10.1575 15.2934
1 22.146 10.9664 14.4943
1 21.3543 10.1418 14.5188
1 22.937 10.9512 15.2934
1 23.7307 10.1575 15.2934
1 23.7335 10.9457 14.5007
1 22.9165 10.176 14.5105
1 24.5244 10.9512 15.2934
1 25.3181 10.1575 15.2934
1 25.3164 10.9634 14.4933
1 24.5227 10.1544 14.5113
1 26.1118 10.9512 15.2934
1 26.9055 10.1575 15.2934
1 26.9138 10.9602 14.505
1 26.0978 10.1918 14.5318
1 27.6992 10.9512 15.2934
1 28.4929 10.1575 15.2934
1 28.4748 10.9555 14.5104
1 27.719 10.1624 14.4886
1 29.2866 10.9512 15.2934
1 0.08031 10.1575 15.2934
1 0.0996612 10.9609 14.4864
1 29.2923 10.1483 14.5131
1 0.874011 10.9512 15.2934
1 1.66771 10.1575 15.2934
1 1.65334 10.9246 14.49
1 0.858315 10.1479 14.5122
1 2.46141 10.9512 15.2934
1 3.25511 10.1575 15.2934
1 3.25161 10.9189 14.5064
1 2.44389 10.1393 14.4928
1 4.04881 10.9512 15.2934
1 4.84251 10.1575 15.2934
1 4.84576 10.9421 14.4814
1 4.08093 10.1397 14.4929
1 5.63621 10.9512 15.2934
1 6.42991 10.1575 15.2934
1 6.43169 10.9423 14.527
1 5.62537 10.1393 14.5202
1 7.22361 10.9512 15.2934
1 8.01732 10.1575 15.2934
1 8.00276 10.949 14.5259
1 7.2269 10.1578 14.5072
1 8.81102 10.9512 15.2934
1 9.60472 10.1575 15.2934
1 9.59245 10.9562 14.5096
1 8.79644 10.1583 14.5074
1 10.3984 10.9512 15.2934
1 11.1921 10.1575 15.2934
1 11.1859 10.9452 14.5021
1 10.4055 10.1725 14.4936
1 11.9858 10.9512 15.2934
1 12.7795 10.1575 15.2934
1 12.7549 10.9518 14.5033
1 11.9904 10.1726 14.5029
1 13.5732 10.9512 15.2934
1 14.3669 10.1575 15.2934
1 14.33 10.9518 14.4625
1 13.5466 10.1393 14.4992
1 15 9.36379 15.2934
1 15.7937 8.57009 15.2934
1 15.8496 9.36821 14.4955
1 15.0627 8.58087 14.4716
1 16.5874 9.36379 15.2934
1 17.3811 8.57009 15.2934
1 17.383 9.34348 14.4758
1 16.5989 8.57402 14.5105
1 18.1748 9.36379 15.2934
1 18.9685 8.57009 15.2934
1 18.9685 9.37215 14.5084
1 18.1707 8.55721 14.5005
1 19.7622 9.36379 15.2934
1 20.5559 8.57009 15.2934
1 20.5222 9.37172 14.4994
1 19.8019 8.57082 14.4961
1 21.3496 9.36379 15.2934
1 22.1433 8.57009 15.2934
1 22.1565 9.37399 14.4949
1 21.345 8.57573 14.5048
1 22.937 9.36379 15.2934
1 23.7307 8.57009 15.2934
1 23.7348 9.35994 14.4741
1 22.945 8.56344 14.5126
1 24.5244 9.36379 15.2934
1 25.3181 8.57009 15.2934
1 25.3231 9.35301 14.5054
1 24.516 8.57275 14.5122
1 26.1118 9.36379 15.2934
1 26.9055 8.57009 15.2934
1 26.9286 9.39586 14.5045
1 26.1068 8.57058 14.5055
1 27.6992 9.36379 15.2934
1 28.4929 8.57009 15.2934
1 28.4855 9.37613 14.4781
1 27.7031 8.58231 14.495
1 29.2866 9.36379 15.2934
1 0.08031 8.57009 15.2934
1 0.0785954 9.34469 14.4983
1 29.2659 8.55909 14.4925
1 0.874011 9.36379 15.2934
1 1.66771 8.57009 15.2934
1 1.661 9.32605 14.5039
1 0.856769 8.55803 14.4938
1 2.46141 9.36379 15.2934
1 3.25511 8.57009 15.2934
1 3.25553 9.33869 14.4914
1 2.46092 8.58357 14.494
1 4.04881 9.36379 15.2934
1 4.84251 8.57009 15.2934
1 4.84226 9.33995 14.4946
1 4.07266 8.53875 14.4934
1 5.63621 9.36379 15.2934
1 6.42991 8.57009 15.2934
1 6.44436 9.37777 14.505
1 5.65205 8.58822 14.4653
1 7.22361 9.36379 15.2934
1 8.01732 8.57009 15.2934
1 8.02217 9.37947 14.4756
1 7.23185 8.57855 14.4999
1 8.81102 9.36379 15.2934
1 9.60472 8.57009 15.2934
1 9.62 9.35965 14.498
1 8.82342 8.59619 14.5041
1 10.3984 9.36379 15.2934
1 11.1921 8.57009 15.2934
1 11.1929 9.36815 14.4839
1 10.3656 8.57766 14.4722
1 11.9858 9.36379 15.2934
1 12.7795 8.57009 15.2934
1 12.7697 9.38218 14.5068
1 11.9781 8.5687 14.4929
1 13.5732 9.36379 15.2934
1 14.3669 8.57009 15.2934
1 14.322 9.36397 14.4769
1 13.5512 8.58624 14.5143
1 15 7.77639 15.2934
1 15.7937 6.98268 15.2934
1 15.8125 7.77764 14.5206
1 15.0606 6.99335 14.4675
1 16.5874 7.77639 15.2934
1 17.3811 6.98268 15.2934
1 17.4039 7.78714 14.5326
1 16.6059 6.98798 14.4918
1 18.1748 7.77639 15.2934
1 18.9685 6.98268 15.2934
1 18.982 7.79023 14.5038
1 18.1726 6.97505 14.5109
1 19.7622 7.77639 15.2934
1 20.5559 6.98268 15.2934
1 20.5585 7.77131 14.4997
1 19.7677 6.97679 14.5094
1 21.3496 7.77639 15.2934
1 22.1433 6.98268 15.2934
1 22.1442 7.76784 14.488
1 21.3353 6.98417 14.4905
1 22.937 7.77639 15.2934
1 23.7307 6.98268 15.2934
1 23.7374 7.77496 14.4888
1 22.9652 6.95741 14.4978
1 24.5244 7.77639 15.2934
1 25.3181 6.98268 15.2934
1 25.312 7.77377 14.4704
1 24.539 6.98473 14.4903
1 26.1118 7.77639 15.2934
1 26.9055 6.98268 15.2934
1 26.9207 7.76354 14.4962
1 26.0937 6.9844 14.4853
1 27.6992 7.77639 15.2934
1 28.4929 6.98268 15.2934
1 28.4922 7.76686 14.4908
1 27.7167 6.9687 14.5124
1 29.2866 7.77639 15.2934
1 0.08031 6.98268 15.2934
1 0.0716084 7.79237 14.5055
1 29.2718 6.99009 14.4762
1 0.874011 7.77639 15.2934
1 1.66771 6.98268 15.2934
1 1.67172 7.79097 14.499
1 0.852813 6.97894 14.4957
1 2.46141 7.77639 15.2934
1 3.25511 6.98268 15.2934
1 3.25472 7.78452 14.5013
1 2.45472 6.98762 14.4844
1 4.04881 7.77639 15.2934
1 4.84251 6.98268 15.2934
1 4.85366 7.76125 14.5107
1 4.06369 6.98984 14.4809
1 5.63621 7.77639 15.2934
1 6.42991 6.98268 15.2934
1 6.40764 7.79091 14.484
1 5.64696 6.9751 14.5041
1 7.22361 7.77639 15.2934
1 8.01732 6.98268 15.2934
1 8.01774 7.76679 14.4827
1 7.2114 7.0096 14.4888
1 8.81102 7.77639 15.2934
1 9.60472 6.98268 15.2934
1 9.60112 7.796 14.508
1 8.80199 6.98702 14.4911
1 10.3984 7.77639 15.2934
1 11.1921 6.98268 15.2934
1 11.1702 7.78579 14.4913
1 10.3807 6.99535 14.4809
1 11.9858 7.77639 15.2934
1 12.7795 6.98268 15.2934
1 12.7665 7.77918 14.5031
1 11.977 6.98957 14.4956
1 13.5732 7.77639 15.2934
1 14.3669 6.98268 15.2934
1 14.2936 7.78389 14.4791
1 13.52 6.98739 14.4804
1 15 6.18898 15.2934
1 15.7937 5.39528 15.2934
1 15.8194 6.1832 14.4752
1 15.0494 5.40576 14.4534
1 16.5874 6.18898 15.2934
1 17.3811 5.39528 15.2934
1 17.3876 6.18246 14.5005
1 16.6129 5.38492 14.5092
1 18.1748 6.18898 15.2934
1 18.9685 5.39528 15.2934
1 18.9633 6.21584 14.5145
1 18.1813 5.41318 14.5235
1 19.7622 6.18898 15.2934
1 20.5559 5.39528 15.2934
1 20.5441 6.17239 14.4872
1 19.783 5.38676 14.5378
1 21.3496 6.18898 15.2934
1 22.1433 5.39528 15.2934
1 22.1582 6.20632 14.5105