9376
Atoms. Timestep: 40000
1 7.5 3.55271e-15 11.3812
1 8.2937 29.2063 11.3812
1 8.33815 29.9558 10.539
1 7.56866 29.1891 10.5611
1 9.0874 3.55271e-15 11.3812
1 9.8811 29.2063 11.3812
1 9.90207 29.9259 10.5452
1 9.11114 29.1852 10.5991
1 10.6748 3.55271e-15 11.3812
1 11.4685 29.2063 11.3812
1 11.4588 29.9163 10.5497
1 10.6869 29.1693 10.6091
1 12.2622 3.55271e-15 11.3812
1 13.0559 29.2063 11.3812
1 13.0682 29.9217 10.5474
1 12.2489 29.1749 10.5779
1 13.8496 3.55271e-15 11.3812
1 14.6433 29.2063 11.3812
1 14.6226 29.9267 10.558
1 13.8572 29.1662 10.584
1 15.437 3.55271e-15 11.3812
1 16.2307 29.2063 11.3812
1 16.2249 29.951 10.5382
1 15.4354 29.1613 10.5932
1 17.0244 3.55271e-15 11.3812
1 17.8181 29.2063 11.3812
1 17.8405 29.9673 10.5435
1 17.0692 29.1917 10.5578
1 18.6118 3.55271e-15 11.3812
1 19.4055 29.2063 11.3812
1 19.3924 29.9241 10.5528
1 18.612 29.1826 10.5614
1 20.1992 3.55271e-15 11.3812
1 20.9929 29.2063 11.3812
1 21.0118 29.9269 10.5337
1 20.1953 29.1737 10.5552
1 21.7866 3.55271e-15 11.3812
1 22.5803 29.2063 11.3812
1 22.5734 29.9526 10.572
1 21.777 29.1686 10.5805
1 23.374 3.55271e-15 11.3812
1 24.1677 29.2063 11.3812
1 24.1921 29.9223 10.5562
1 23.3914 29.1661 10.5825
1 24.9614 3.55271e-15 11.3812
1 25.7551 29.2063 11.3812
1 25.755 29.9226 10.5608
1 24.9702 29.1659 10.5711
1 26.5488 3.55271e-15 11.3812
1 27.3425 29.2063 11.3812
1 27.3521 29.9435 10.5439
1 26.5534 29.1609 10.5781
1 28.1362 3.55271e-15 11.3812
1 28.9299 29.2063 11.3812
1 28.9151 29.9399 10.5463
1 28.1204 29.1572 10.5838
1 29.7236 3.55271e-15 11.3812
1 0.517315 29.2063 11.3812
1 0.516699 29.9464 10.544
1 29.7199 29.1849 10.5698
1 1.31102 3.55271e-15 11.3812
1 2.10472 29.2063 11.3812
1 2.1112 29.9358 10.5476
1 1.33354 29.1735 10.5786
1 2.89842 3.55271e-15 11.3812
1 3.69212 29.2063 11.3812
1 3.68878 29.936 10.5462
1 2.8754 29.1677 10.5715
1 4.48582 3.55271e-15 11.3812
1 5.27952 29.2063 11.3812
1 5.23698 29.9384 10.5447
1 4.46757 29.1705 10.577
1 6.07322 3.55271e-15 11.3812
1 6.86692 29.2063 11.3812
1 6.79898 29.9495 10.5275
1 6.05019 29.175 10.587
1 7.5 28.4126 11.3812
1 8.2937 27.6189 11.3812
1 8.31548 28.3914 10.5793
1 7.5873 27.625 10.5637
1 9.0874 28.4126 11.3812
1 9.8811 27.6189 11.3812
1 9.89517 28.3951 10.6039
1 9.08921 27.6268 10.5787
1 10.6748 28.4126 11.3812
1 11.4685 27.6189 11.3812
1 11.4724 28.3884 10.5856
1 10.6883 27.6183 10.5978
1 12.2622 28.4126 11.3812
1 13.0559 27.6189 11.3812
1 13.0244 28.3969 10.5843
1 12.2497 27.5974 10.5841
1 13.8496 28.4126 11.3812
1 14.6433 27.6189 11.3812
1 14.6499 28.3894 10.6056
1 13.8309 27.6119 10.5934
1 15.437 28.4126 11.3812
1 16.2307 27.6189 11.3812
1 16.2277 28.3744 10.5837
1 15.461 27.6144 10.6014
1 17.0244 28.4126 11.3812
1 17.8181 27.6189 11.3812
1 17.853 28.4027 10.5727
1 17.0434 27.6017 10.5882
1 18.6118 28.4126 11.3812
1 19.4055 27.6189 11.3812
1 19.4137 28.411 10.5702
1 18.6227 27.6204 10.5716
1 20.1992 28.4126 11.3812
1 20.9929 27.6189 11.3812
1 21.0001 28.3749 10.5896
1 20.1923 27.6169 10.5853
1 21.7866 28.4126 11.3812
1 22.5803 27.6189 11.3812
1 22.6025 28.4051 10.5802
1 21.7972 27.6024 10.5694
1 23.374 28.4126 11.3812
1 24.1677 27.6189 11.3812
1 24.1563 28.4154 10.5795
1 23.3683 27.6305 10.5871
1 24.9614 28.4126 11.3812
1 25.7551 27.6189 11.3812
1 25.7465 28.3866 10.6005
1 24.9483 27.5944 10.6049
1 26.5488 28.4126 11.3812
1 27.3425 27.6189 11.3812
1 27.3239 28.4136 10.5942
1 26.5375 27.6052 10.5751
1 28.1362 28.4126 11.3812
1 28.9299 27.6189 11.3812
1 28.9523 28.3796 10.5896
1 28.1181 27.5932 10.6059
1 29.7236 28.4126 11.3812
1 0.517315 27.6189 11.3812
1 0.503117 28.4037 10.5773
1 29.7452 27.6099 10.5901
1 1.31102 28.4126 11.3812
1 2.10472 27.6189 11.3812
1 2.09243 28.3942 10.5872
1 1.30193 27.5996 10.5955
1 2.89842 28.4126 11.3812
1 3.69212 27.6189 11.3812
1 3.67898 28.3734 10.5773
1 2.90862 27.6069 10.569
1 4.48582 28.4126 11.3812
1 5.27952 27.6189 11.3812
1 5.27352 28.3579 10.5832
1 4.45817 27.595 10.5741
1 6.07322 28.4126 11.3812
1 6.86692 27.6189 11.3812
1 6.83785 28.3863 10.5523
1 6.04996 27.5988 10.5863
1 7.5 26.8252 11.3812
1 8.2937 26.0315 11.3812
1 8.30545 26.8001 10.5993
1 7.57125 26.0331 10.5649
1 9.0874 26.8252 11.3812
1 9.8811 26.0315 11.3812
1 9.85792 26.7957 10.6051
1 9.08906 26.0043 10.5894
1 10.6748 26.8252 11.3812
1 11.4685 26.0315 11.3812
1 11.468 26.8219 10.5909
1 10.6978 26.0155 10.6032
1 12.2622 26.8252 11.3812
1 13.0559 26.0315 11.3812
1 13.0584 26.8327 10.6104
1 12.2932 26.0128 10.5892
1 13.8496 26.8252 11.3812
1 14.6433 26.0315 11.3812
1 14.6628 26.8047 10.5934
1 13.8657 26.0375 10.5931
1 15.437 26.8252 11.3812
1 16.2307 26.0315 11.3812
1 16.2509 26.8437 10.5949
1 15.4555 26.0116 10.5987
1 17.0244 26.8252 11.3812
1 17.8181 26.0315 11.3812
1 17.8734 26.8169 10.5861
1 17.0367 26.0179 10.5795
1 18.6118 26.8252 11.3812
1 19.4055 26.0315 11.3812
1 19.4086 26.8093 10.5935
1 18.59 26.0045 10.5807
1 20.1992 26.8252 11.3812
1 20.9929 26.0315 11.3812
1 20.989 26.8111 10.5956
1 20.203 26.0365 10.5918
1 21.7866 26.8252 11.3812
1 22.5803 26.0315 11.3812
1 22.5916 26.82 10.5671
1 21.7909 26.038 10.5898
1 23.374 26.8252 11.3812
1 24.1677 26.0315 11.3812
1 24.1385 26.8152 10.5927
1 23.3962 26.0115 10.5822
1 24.9614 26.8252 11.3812
1 25.7551 26.0315 11.3812
1 25.7537 26.8046 10.5988
1 24.9383 26.0223 10.5978
1 26.5488 26.8252 11.3812
1 27.3425 26.0315 11.3812
1 27.3513 26.8315 10.5957
1 26.5439 26.0299 10.6104
1 28.1362 26.8252 11.3812
1 28.9299 26.0315 11.3812
1 28.9042 26.8345 10.5857
1 28.1293 26.0211 10.6089
1 29.7236 26.8252 11.3812
1 0.517315 26.0315 11.3812
1 0.533966 26.8083 10.5939
1 29.7189 26.0392 10.5882
1 1.31102 26.8252 11.3812
1 2.10472 26.0315 11.3812
1 2.12784 26.8329 10.5883
1 1.32217 26.0402 10.5718
1 2.89842 26.8252 11.3812
1 3.69212 26.0315 11.3812
1 3.68529 26.7947 10.5716
1 2.89898 26.0352 10.6012
1 4.48582 26.8252 11.3812
1 5.27952 26.0315 11.3812
1 5.25527 26.7909 10.5729
1 4.46884 26.006 10.568
1 6.07322 26.8252 11.3812
1 6.86692 26.0315 11.3812
1 6.82465 26.806 10.5499
1 6.0658 26.0125 10.5904
1 7.5 25.2378 11.3812
1 8.2937 24.4441 11.3812
1 8.28189 25.225 10.5695
1 7.57611 24.4329 10.5642
1 9.0874 25.2378 11.3812
1 9.8811 24.4441 11.3812
1 9.88086 25.201 10.5703
1 9.09863 24.4645 10.5816
1 10.6748 25.2378 11.3812
1 11.4685 24.4441 11.3812
1 11.4975 25.2266 10.6144
1 10.6974 24.4469 10.6032
1 12.2622 25.2378 11.3812
1 13.0559 24.4441 11.3812
1 13.0376 25.2214 10.6019
1 12.2747 24.4364 10.6013
1 13.8496 25.2378 11.3812
1 14.6433 24.4441 11.3812
1 14.6589 25.2383 10.592
1 13.8506 24.4455 10.5801
1 15.437 25.2378 11.3812
1 16.2307 24.4441 11.3812
1 16.2225 25.2305 10.5782
1 15.4706 24.4096 10.5695
1 17.0244 25.2378 11.3812
1 17.8181 24.4441 11.3812
1 17.7953 25.2351 10.6043
1 17.0129 24.4437 10.5906
1 18.6118 25.2378 11.3812
1 19.4055 24.4441 11.3812
1 19.3869 25.2284 10.5843
1 18.6107 24.4283 10.5743
1 20.1992 25.2378 11.3812
1 20.9929 24.4441 11.3812
1 20.9949 25.2347 10.6143
1 20.2054 24.4476 10.5704
1 21.7866 25.2378 11.3812
1 22.5803 24.4441 11.3812
1 22.6027 25.2287 10.5837
1 21.7655 24.4573 10.6042
1 23.374 25.2378 11.3812
1 24.1677 24.4441 11.3812
1 24.1682 25.2411 10.6033
1 23.3981 24.4324 10.6209
1 24.9614 25.2378 11.3812
1 25.7551 24.4441 11.3812
1 25.744 25.2369 10.5633
1 24.9506 24.4534 10.6077
1 26.5488 25.2378 11.3812
1 27.3425 24.4441 11.3812
1 27.3289 25.2264 10.6021
1 26.5412 24.4425 10.5808
1 28.1362 25.2378 11.3812
1 28.9299 24.4441 11.3812
1 28.936 25.257 10.6153
1 28.1359 24.4171 10.5908
1 29.7236 25.2378 11.3812
1 0.517315 24.4441 11.3812
1 0.520012 25.2656 10.5846
1 29.7169 24.4552 10.5912
1 1.31102 25.2378 11.3812
1 2.10472 24.4441 11.3812
1 2.10981 25.2249 10.5923
1 1.32284 24.4454 10.5923
1 2.89842 25.2378 11.3812
1 3.69212 24.4441 11.3812
1 3.68612 25.212 10.5769
1 2.90325 24.4404 10.6045
1 4.48582 25.2378 11.3812
1 5.27952 24.4441 11.3812
1 5.29065 25.2346 10.5931
1 4.47565 24.4559 10.5856
1 6.07322 25.2378 11.3812
1 6.86692 24.4441 11.3812
1 6.81433 25.2224 10.561
1 6.05548 24.4411 10.5786
1 7.5 23.6504 11.3812
1 8.2937 22.8567 11.3812
1 8.32375 23.6317 10.5618
1 7.52684 22.8363 10.5494
1 9.0874 23.6504 11.3812
1 9.8811 22.8567 11.3812
1 9.90347 23.6483 10.6149
1 9.14281 22.8466 10.5984
1 10.6748 23.6504 11.3812
1 11.4685 22.8567 11.3812
1 11.4884 23.6523 10.5791
1 10.7073 22.8505 10.6016
1 12.2622 23.6504 11.3812
1 13.0559 22.8567 11.3812
1 13.0696 23.6557 10.6092
1 12.2596 22.8547 10.5871
1 13.8496 23.6504 11.3812
1 14.6433 22.8567 11.3812
1 14.6379 23.6493 10.5877
1 13.8466 22.861 10.5761
1 15.437 23.6504 11.3812
1 16.2307 22.8567 11.3812
1 16.2315 23.6354 10.5743
1 15.4438 22.8623 10.5745
1 17.0244 23.6504 11.3812
1 17.8181 22.8567 11.3812
1 17.7816 23.6419 10.5947
1 17.0222 22.8573 10.5951
1 18.6118 23.6504 11.3812
1 19.4055 22.8567 11.3812
1 19.3986 23.6424 10.59
1 18.5925 22.867 10.5756
1 20.1992 23.6504 11.3812
1 20.9929 22.8567 11.3812
1 20.9859 23.6322 10.5807
1 20.1778 22.8343 10.6014
1 21.7866 23.6504 11.3812
1 22.5803 22.8567 11.3812
1 22.5809 23.6485 10.6028
1 21.7725 22.8625 10.6103
1 23.374 23.6504 11.3812
1 24.1677 22.8567 11.3812
1 24.1659 23.6411 10.6113
1 23.3645 22.8703 10.5841
1 24.9614 23.6504 11.3812
1 25.7551 22.8567 11.3812
1 25.743 23.6647 10.5886
1 24.9777 22.8592 10.5761
1 26.5488 23.6504 11.3812
1 27.3425 22.8567 11.3812
1 27.3499 23.6593 10.5634
1 26.576 22.8391 10.577
1 28.1362 23.6504 11.3812
1 28.9299 22.8567 11.3812
1 28.9225 23.6389 10.5915
1 28.1515 22.8477 10.5744
1 29.7236 23.6504 11.3812
1 0.517315 22.8567 11.3812
1 0.516154 23.6611 10.5896
1 29.7302 22.8276 10.5891
1 1.31102 23.6504 11.3812
1 2.10472 22.8567 11.3812
1 2.12349 23.673 10.5983
1 1.30498 22.8526 10.5801
1 2.89842 23.6504 11.3812
1 3.69212 22.8567 11.3812
1 3.69102 23.6479 10.6018
1 2.90989 22.8383 10.5947
1 4.48582 23.6504 11.3812
1 5.27952 22.8567 11.3812
1 5.29494 23.6486 10.6102
1 4.46462 22.8461 10.6065
1 6.07322 23.6504 11.3812
1 6.86692 22.8567 11.3812
1 6.81522 23.6279 10.5406
1 6.0381 22.8646 10.5866
1 7.5 22.063 11.3812
1 8.2937 21.2693 11.3812
1 8.327 22.0681 10.5905
1 7.57027 21.271 10.5392
1 9.0874 22.063 11.3812
1 9.8811 21.2693 11.3812
1 9.90606 22.0357 10.5887
1 9.11756 21.2763 10.5762
1 10.6748 22.063 11.3812
1 11.4685 21.2693 11.3812
1 11.4933 22.0705 10.5886
1 10.6781 21.2697 10.5899
1 12.2622 22.063 11.3812
1 13.0559 21.2693 11.3812
1 13.056 22.0561 10.5852
1 12.2685 21.2663 10.6136
1 13.8496 22.063 11.3812
1 14.6433 21.2693 11.3812
1 14.6205 22.0693 10.6016
1 13.8453 21.2629 10.5943
1 15.437 22.063 11.3812
1 16.2307 21.2693 11.3812
1 16.2181 22.0504 10.5876
1 15.435 21.2543 10.5797
1 17.0244 22.063 11.3812
1 17.8181 21.2693 11.3812
1 17.7977 22.0516 10.6012
1 17.0022 21.2823 10.5845
1 18.6118 22.063 11.3812
1 19.4055 21.2693 11.3812
1 19.4122 22.0502 10.5984
1 18.6115 21.2592 10.5907
1 20.1992 22.063 11.3812
1 20.9929 21.2693 11.3812
1 20.9788 22.0893 10.5996
1 20.2169 21.2739 10.5853
1 21.7866 22.063 11.3812
1 22.5803 21.2693 11.3812
1 22.5724 22.076 10.5868
1 21.7622 21.2734 10.6088
1 23.374 22.063 11.3812
1 24.1677 21.2693 11.3812
1 24.2046 22.064 10.5547
1 23.383 21.2719 10.5683
1 24.9614 22.063 11.3812
1 25.7551 21.2693 11.3812
1 25.7703 22.0454 10.6073
1 24.9774 21.2785 10.5808
1 26.5488 22.063 11.3812
1 27.3425 21.2693 11.3812
1 27.3334 22.0509 10.6006
1 26.5641 21.2446 10.5845
1 28.1362 22.063 11.3812
1 28.9299 21.2693 11.3812
1 28.9159 22.0741 10.6004
1 28.1063 21.24 10.6048
1 29.7236 22.063 11.3812
1 0.517315 21.2693 11.3812
1 0.514676 22.0597 10.5593
1 29.7347 21.2757 10.5685
1 1.31102 22.063 11.3812
1 2.10472 21.2693 11.3812
1 2.10619 22.0458 10.5978
1 1.32777 21.2735 10.5546
1 2.89842 22.063 11.3812
1 3.69212 21.2693 11.3812
1 3.70205 22.0794 10.6027
1 2.92237 21.2645 10.5851
1 4.48582 22.063 11.3812
1 5.27952 21.2693 11.3812
1 5.2384 22.0706 10.5927
1 4.45771 21.2632 10.6019
1 6.07322 22.063 11.3812
1 6.86692 21.2693 11.3812
1 6.79032 22.0444 10.5396
1 6.06238 21.265 10.5876
1 7.5 20.4756 11.3812
1 8.2937 19.6819 11.3812
1 8.33184 20.4749 10.5659
1 7.56359 19.6592 10.5542
1 9.0874 20.4756 11.3812
1 9.8811 19.6819 11.3812
1 9.87501 20.4534 10.5726
1 9.08831 19.6747 10.5886
1 10.6748 20.4756 11.3812
1 11.4685 19.6819 11.3812
1 11.4663 20.486 10.5816
1 10.6722 19.696 10.5891
1 12.2622 20.4756 11.3812
1 13.0559 19.6819 11.3812
1 13.0493 20.4653 10.609
1 12.2347 19.6695 10.577
1 13.8496 20.4756 11.3812
1 14.6433 19.6819 11.3812
1 14.6668 20.4675 10.5898
1 13.8853 19.6893 10.5874
1 15.437 20.4756 11.3812
1 16.2307 19.6819 11.3812
1 16.2118 20.4701 10.5725
1 15.449 19.6748 10.5911
1 17.0244 20.4756 11.3812
1 17.8181 19.6819 11.3812
1 17.8102 20.4872 10.6051
1 17.0188 19.6765 10.5696
1 18.6118 20.4756 11.3812
1 19.4055 19.6819 11.3812
1 19.4171 20.4712 10.6048
1 18.63 19.7016 10.6041
1 20.1992 20.4756 11.3812
1 20.9929 19.6819 11.3812
1 21.001 20.4463 10.5774
1 20.1991 19.6873 10.59
1 21.7866 20.4756 11.3812
1 22.5803 19.6819 11.3812
1 22.5884 20.4752 10.5731
1 21.7919 19.6894 10.5696
1 23.374 20.4756 11.3812
1 24.1677 19.6819 11.3812
1 24.1819 20.4982 10.6038
1 23.3835 19.7003 10.5785
1 24.9614 20.4756 11.3812
1 25.7551 19.6819 11.3812
1 25.7741 20.4671 10.5888
1 24.9501 19.6953 10.5776
1 26.5488 20.4756 11.3812
1 27.3425 19.6819 11.3812
1 27.3324 20.451 10.5909
1 26.5419 19.6939 10.5816
1 28.1362 20.4756 11.3812
1 28.9299 19.6819 11.3812
1 28.9218 20.4792 10.5975
1 28.1137 19.6897 10.6119
1 29.7236 20.4756 11.3812
1 0.517315 19.6819 11.3812
1 0.524988 20.5114 10.5777
1 29.7342 19.6872 10.5766
1 1.31102 20.4756 11.3812
1 2.10472 19.6819 11.3812
1 2.11655 20.4886 10.5699
1 1.33016 19.6951 10.575
1 2.89842 20.4756 11.3812
1 3.69212 19.6819 11.3812
1 3.70332 20.4761 10.6041
1 2.8923 19.6696 10.6029
1 4.48582 20.4756 11.3812
1 5.27952 19.6819 11.3812
1 5.24036 20.4658 10.5994
1 4.47845 19.6677 10.5805
1 6.07322 20.4756 11.3812
1 6.86692 19.6819 11.3812
1 6.80097 20.4675 10.5669
1 6.0567 19.676 10.5834
1 7.5 18.8882 11.3812
1 8.2937 18.0945 11.3812
1 8.30942 18.8922 10.5752
1 7.56031 18.1017 10.5422
1 9.0874 18.8882 11.3812
1 9.8811 18.0945 11.3812
1 9.89536 18.9086 10.5752
1 9.13998 18.0877 10.5811
1 10.6748 18.8882 11.3812
1 11.4685 18.0945 11.3812
1 11.4524 18.8915 10.6058
1 10.6691 18.1162 10.5984
1 12.2622 18.8882 11.3812
1 13.0559 18.0945 11.3812
1 13.0626 18.9198 10.5818
1 12.252 18.0934 10.6046
1 13.8496 18.8882 11.3812
1 14.6433 18.0945 11.3812
1 14.647 18.8938 10.5929
1 13.8417 18.1107 10.5812
1 15.437 18.8882 11.3812
1 16.2307 18.0945 11.3812
1 16.2553 18.9165 10.6091
1 15.4257 18.1197 10.5753
1 17.0244 18.8882 11.3812
1 17.8181 18.0945 11.3812
1 17.8306 18.8937 10.5974
1 17.0191 18.0772 10.5899
1 18.6118 18.8882 11.3812
1 19.4055 18.0945 11.3812
1 19.3871 18.8763 10.5851
1 18.6382 18.0895 10.5888
1 20.1992 18.8882 11.3812
1 20.9929 18.0945 11.3812
1 20.9911 18.8945 10.5964
1 20.1968 18.1021 10.592
1 21.7866 18.8882 11.3812
1 22.5803 18.0945 11.3812
1 22.5768 18.8915 10.5742
1 21.7924 18.1205 10.6045
1 23.374 18.8882 11.3812
1 24.1677 18.0945 11.3812
1 24.145 18.9131 10.6128
1 23.3795 18.1056 10.6134
1 24.9614 18.8882 11.3812
1 25.7551 18.0945 11.3812
1 25.7545 18.8811 10.566
1 24.9543 18.0993 10.5599
1 26.5488 18.8882 11.3812
1 27.3425 18.0945 11.3812
1 27.3082 18.8942 10.624
1 26.5211 18.0904 10.5628
1 28.1362 18.8882 11.3812
1 28.9299 18.0945 11.3812
1 28.9124 18.8974 10.5846
1 28.1235 18.128 10.57
1 29.7236 18.8882 11.3812
1 0.517315 18.0945 11.3812
1 0.527922 18.8947 10.5702
1 29.7076 18.1117 10.5802
1 1.31102 18.8882 11.3812
1 2.10472 18.0945 11.3812
1 2.09232 18.8907 10.5886
1 1.3121 18.1133 10.5879
1 2.89842 18.8882 11.3812
1 3.69212 18.0945 11.3812
1 3.65781 18.8733 10.5984
1 2.90117 18.1077 10.5624
1 4.48582 18.8882 11.3812
1 5.27952 18.0945 11.3812
1 5.28078 18.907 10.5798
1 4.47602 18.0966 10.596
1 6.07322 18.8882 11.3812
1 6.86692 18.0945 11.3812
1 6.79568 18.8838 10.5496
1 6.06144 18.1024 10.5911
1 7.5 17.3008 11.3812
1 8.2937 16.5071 11.3812
1 8.33912 17.2759 10.5803
1 7.57407 16.5127 10.5442
1 9.0874 17.3008 11.3812
1 9.8811 16.5071 11.3812
1 9.90574 17.2988 10.5937
1 9.11582 16.511 10.5744
1 10.6748 17.3008 11.3812
1 11.4685 16.5071 11.3812
1 11.4656 17.2883 10.5983
1 10.6757 16.4969 10.6058
1 12.2622 17.3008 11.3812
1 13.0559 16.5071 11.3812
1 13.0691 17.2858 10.5916
1 12.2603 16.5208 10.5877
1 13.8496 17.3008 11.3812
1 14.6433 16.5071 11.3812
1 14.6435 17.291 10.6103
1 13.8703 16.4877 10.5872
1 15.437 17.3008 11.3812
1 16.2307 16.5071 11.3812
1 16.2508 17.2857 10.5721
1 15.4459 16.4957 10.5963
1 17.0244 17.3008 11.3812
1 17.8181 16.5071 11.3812
1 17.8218 17.3308 10.579
1 17.0439 16.503 10.5785
1 18.6118 17.3008 11.3812
1 19.4055 16.5071 11.3812
1 19.4195 17.3025 10.5902
1 18.6063 16.4961 10.5784
1 20.1992 17.3008 11.3812
1 20.9929 16.5071 11.3812
1 20.9884 17.2977 10.6057
1 20.1993 16.5 10.5997
1 21.7866 17.3008 11.3812
1 22.5803 16.5071 11.3812
1 22.5832 17.2862 10.5937
1 21.7906 16.4935 10.6125
1 23.374 17.3008 11.3812
1 24.1677 16.5071 11.3812
1 24.1722 17.3069 10.5893
1 23.3662 16.4873 10.5936
1 24.9614 17.3008 11.3812
1 25.7551 16.5071 11.3812
1 25.7759 17.2938 10.6131
1 24.9358 16.4992 10.5716
1 26.5488 17.3008 11.3812
1 27.3425 16.5071 11.3812
1 27.3263 17.3322 10.6088
1 26.5529 16.5178 10.6033
1 28.1362 17.3008 11.3812
1 28.9299 16.5071 11.3812
1 28.8896 17.3121 10.5692
1 28.1427 16.5152 10.6037
1 29.7236 17.3008 11.3812
1 0.517315 16.5071 11.3812
1 0.515544 17.3153 10.6149
1 29.7204 16.5249 10.5726
1 1.31102 17.3008 11.3812
1 2.10472 16.5071 11.3812
1 2.0897 17.3256 10.5786
1 1.31578 16.498 10.5721
1 2.89842 17.3008 11.3812
1 3.69212 16.5071 11.3812
1 3.68368 17.3013 10.5941
1 2.89527 16.5267 10.5805
1 4.48582 17.3008 11.3812
1 5.27952 16.5071 11.3812
1 5.27349 17.2975 10.5736
1 4.47074 16.504 10.5898
1 6.07322 17.3008 11.3812
1 6.86692 16.5071 11.3812
1 6.78074 17.3181 10.5747
1 6.03358 16.4919 10.5633
1 7.5 15.7134 11.3812
1 8.2937 14.9197 11.3812
1 8.33351 15.7368 10.5922
1 7.53624 14.8942 10.581
1 9.0874 15.7134 11.3812
1 9.8811 14.9197 11.3812
1 9.87924 15.7037 10.5645
1 9.10431 14.9272 10.5992
1 10.6748 15.7134 11.3812
1 11.4685 14.9197 11.3812
1 11.4651 15.7151 10.595
1 10.6867 14.9301 10.587
1 12.2622 15.7134 11.3812
1 13.0559 14.9197 11.3812
1 13.0616 15.7306 10.5824
1 12.2785 14.9485 10.5938
1 13.8496 15.7134 11.3812
1 14.6433 14.9197 11.3812
1 14.6519 15.6987 10.5941
1 13.8525 14.9062 10.5965
1 15.437 15.7134 11.3812
1 16.2307 14.9197 11.3812
1 16.2137 15.7058 10.594
1 15.4287 14.9292 10.5761
1 17.0244 15.7134 11.3812
1 17.8181 14.9197 11.3812
1 17.7965 15.7113 10.6139
1 17.0332 14.9263 10.5904
1 18.6118 15.7134 11.3812
1 19.4055 14.9197 11.3812
1 19.4055 15.7164 10.5703
1 18.6211 14.9137 10.5896
1 20.1992 15.7134 11.3812
1 20.9929 14.9197 11.3812
1 20.9941 15.6939 10.5788
1 20.2205 14.9143 10.6024
1 21.7866 15.7134 11.3812
1 22.5803 14.9197 11.3812
1 22.5911 15.7024 10.5992
1 21.801 14.9094 10.5864
1 23.374 15.7134 11.3812
1 24.1677 14.9197 11.3812
1 24.1394 15.7106 10.5872
1 23.3717 14.9079 10.603
1 24.9614 15.7134 11.3812
1 25.7551 14.9197 11.3812
1 25.743 15.7073 10.5926
1 24.9309 14.9306 10.596
1 26.5488 15.7134 11.3812
1 27.3425 14.9197 11.3812
1 27.3412 15.698 10.5914
1 26.5509 14.9176 10.5811
1 28.1362 15.7134 11.3812
1 28.9299 14.9197 11.3812
1 28.9371 15.7344 10.5818
1 28.113 14.9303 10.5829
1 29.7236 15.7134 11.3812
1 0.517315 14.9197 11.3812
1 0.530374 15.7062 10.6008
1 29.7225 14.9191 10.5666
1 1.31102 15.7134 11.3812
1 2.10472 14.9197 11.3812
1 2.12341 15.7 10.5703
1 1.31616 14.9034 10.5748
1 2.89842 15.7134 11.3812
1 3.69212 14.9197 11.3812
1 3.68565 15.7107 10.5878
1 2.90626 14.9186 10.5884
1 4.48582 15.7134 11.3812
1 5.27952 14.9197 11.3812
1 5.25764 15.7351 10.5824
1 4.47603 14.9308 10.5835
1 6.07322 15.7134 11.3812
1 6.86692 14.9197 11.3812
1 6.7954 15.7202 10.5564
1 6.04349 14.9457 10.5566
1 7.5 14.126 11.3812
1 8.2937 13.3323 11.3812
1 8.30225 14.104 10.5718
1 7.55431 13.3492 10.5529
1 9.0874 14.126 11.3812
1 9.8811 13.3323 11.3812
1 9.87151 14.1216 10.5738
1 9.08011 13.3218 10.5827
1 10.6748 14.126 11.3812
1 11.4685 13.3323 11.3812
1 11.4688 14.122 10.5873
1 10.6895 13.3462 10.557
1 12.2622 14.126 11.3812
1 13.0559 13.3323 11.3812
1 13.0572 14.1216 10.599
1 12.2596 13.3102 10.6085
1 13.8496 14.126 11.3812
1 14.6433 13.3323 11.3812
1 14.6563 14.1444 10.5908
1 13.8471 13.3169 10.6248
1 15.437 14.126 11.3812
1 16.2307 13.3323 11.3812
1 16.2263 14.1531 10.546
1 15.4402 13.3412 10.5821
1 17.0244 14.126 11.3812
1 17.8181 13.3323 11.3812
1 17.8192 14.1203 10.5889
1 17.0133 13.3488 10.589
1 18.6118 14.126 11.3812
1 19.4055 13.3323 11.3812
1 19.429 14.1346 10.5565
1 18.6644 13.328 10.5764
1 20.1992 14.126 11.3812
1 20.9929 13.3323 11.3812
1 21.0002 14.1319 10.5773
1 20.2159 13.3584 10.5947
1 21.7866 14.126 11.3812
1 22.5803 13.3323 11.3812
1 22.579 14.0989 10.5862
1 21.7964 13.3276 10.5733
1 23.374 14.126 11.3812
1 24.1677 13.3323 11.3812
1 24.1531 14.1294 10.5892
1 23.3719 13.3109 10.58
1 24.9614 14.126 11.3812
1 25.7551 13.3323 11.3812
1 25.7552 14.1398 10.5565
1 24.9554 13.3255 10.5935
1 26.5488 14.126 11.3812
1 27.3425 13.3323 11.3812
1 27.3372 14.1238 10.5894
1 26.5349 13.3178 10.5672
1 28.1362 14.126 11.3812
1 28.9299 13.3323 11.3812
1 28.9215 14.141 10.5718
1 28.1541 13.3204 10.5794
1 29.7236 14.126 11.3812
1 0.517315 13.3323 11.3812
1 0.516536 14.1343 10.5635
1 29.7056 13.364 10.5714
1 1.31102 14.126 11.3812
1 2.10472 13.3323 11.3812
1 2.09236 14.1017 10.5923
1 1.2755 13.3407 10.5807
1 2.89842 14.126 11.3812
1 3.69212 13.3323 11.3812
1 3.65645 14.1258 10.5963
1 2.87761 13.3224 10.5932
1 4.48582 14.126 11.3812
1 5.27952 13.3323 11.3812
1 5.2696 14.1119 10.5861
1 4.4647 13.3305 10.5969
1 6.07322 14.126 11.3812
1 6.86692 13.3323 11.3812
1 6.75403 14.1255 10.5309
1 6.01399 13.3122 10.5761
1 7.5 12.5386 11.3812
1 8.2937 11.7449 11.3812
1 8.28482 12.537 10.5639
1 7.53974 11.7413 10.5263
1 9.0874 12.5386 11.3812
1 9.8811 11.7449 11.3812
1 9.91027 12.5435 10.584
1 9.09036 11.7 10.5486
1 10.6748 12.5386 11.3812
1 11.4685 11.7449 11.3812
1 11.4486 12.5406 10.564
1 10.6646 11.7477 10.5703
1 12.2622 12.5386 11.3812
1 13.0559 11.7449 11.3812
1 13.041 12.5049 10.602
1 12.231 11.7472 10.6025
1 13.8496 12.5386 11.3812
1 14.6433 11.7449 11.3812
1 14.6578 12.5306 10.5845
1 13.8615 11.7142 10.6104
1 15.437 12.5386 11.3812
1 16.2307 11.7449 11.3812
1 16.2525 12.522 10.5693
1 15.4575 11.7492 10.6114
1 17.0244 12.5386 11.3812
1 17.8181 11.7449 11.3812
1 17.8278 12.5521 10.5926
1 17.0155 11.7396 10.5866
1 18.6118 12.5386 11.3812
1 19.4055 11.7449 11.3812
1 19.4254 12.5491 10.5664
1 18.6044 11.7592 10.5881
1 20.1992 12.5386 11.3812
1 20.9929 11.7449 11.3812
1 20.9828 12.5591 10.5422
1 20.2058 11.7525 10.5896
1 21.7866 12.5386 11.3812
1 22.5803 11.7449 11.3812
1 22.5834 12.5462 10.5961
1 21.7945 11.7421 10.5849
1 23.374 12.5386 11.3812
1 24.1677 11.7449 11.3812
1 24.1676 12.5446 10.6079
1 23.3723 11.7671 10.5819
1 24.9614 12.5386 11.3812
1 25.7551 11.7449 11.3812
1 25.7844 12.531 10.6126
1 24.9481 11.7448 10.6264
1 26.5488 12.5386 11.3812
1 27.3425 11.7449 11.3812
1 27.3487 12.5555 10.5616
1 26.5657 11.7581 10.5968
1 28.1362 12.5386 11.3812
1 28.9299 11.7449 11.3812
1 28.9467 12.5216 10.5863
1 28.1332 11.7428 10.6082
1 29.7236 12.5386 11.3812
1 0.517315 11.7449 11.3812
1 0.512638 12.5598 10.5934
1 29.7391 11.7413 10.5806
1 1.31102 12.5386 11.3812
1 2.10472 11.7449 11.3812
1 2.09504 12.5277 10.5786
1 1.28201 11.7389 10.6056
1 2.89842 12.5386 11.3812
1 3.69212 11.7449 11.3812
1 3.69299 12.5395 10.5859
1 2.89628 11.7312 10.5701
1 4.48582 12.5386 11.3812
1 5.27952 11.7449 11.3812
1 5.24505 12.5272 10.5788
1 4.49578 11.7219 10.5788
1 6.07322 12.5386 11.3812
1 6.86692 11.7449 11.3812
1 6.7899 12.5564 10.5707
1 6.03323 11.7461 10.5628
1 7.5 10.9512 11.3812
1 8.2937 10.1575 11.3812
1 8.32177 10.9583 10.5715
1 7.57357 10.1721 10.5451
1 9.0874 10.9512 11.3812
1 9.8811 10.1575 11.3812
1 9.90035 10.9587 10.592
1 9.07722 10.1688 10.5968
1 10.6748 10.9512 11.3812
1 11.4685 10.1575 11.3812
1 11.467 10.9732 10.582
1 10.6808 10.1483 10.5945
1 12.2622 10.9512 11.3812
1 13.0559 10.1575 11.3812
1 13.0536 10.9646 10.5864
1 12.2841 10.159 10.5989
1 13.8496 10.9512 11.3812
1 14.6433 10.1575 11.3812
1 14.6515 10.9481 10.5957
1 13.8518 10.1619 10.5879
1 15.437 10.9512 11.3812
1 16.2307 10.1575 11.3812
1 16.2353 10.9464 10.575
1 15.4405 10.1899 10.585
1 17.0244 10.9512 11.3812
1 17.8181 10.1575 11.3812
1 17.8066 10.9414 10.5687
1 17.0266 10.1554 10.5867
1 18.6118 10.9512 11.3812
1 19.4055 10.1575 11.3812
1 19.4216 10.9565 10.5726
1 18.62 10.1534 10.5601
1 20.1992 10.9512 11.3812
1 20.9929 10.1575 11.3812
1 20.9899 10.9566 10.5844
1 20.1976 10.1733 10.5796
1 21.7866 10.9512 11.3812
1 22.5803 10.1575 11.3812
1 22.599 10.9618 10.5796
1 21.7998 10.1367 10.5756
1 23.374 10.9512 11.3812
1 24.1677 10.1575 11.3812
1 24.1567 10.9326 10.5735
1 23.3583 10.18 10.5928
1 24.9614 10.9512 11.3812
1 25.7551 10.1575 11.3812
1 25.7622 10.9678 10.5735
1 24.9867 10.1719 10.5869
1 26.5488 10.9512 11.3812
1 27.3425 10.1575 11.3812
1 27.3449 10.9536 10.5748
1 26.5629 10.1712 10.5745
1 28.1362 10.9512 11.3812
1 28.9299 10.1575 11.3812
1 28.9358 10.9572 10.5637
1 28.1418 10.1675 10.5756
1 29.7236 10.9512 11.3812
1 0.517315 10.1575 11.3812
1 0.50265 10.9233 10.564
1 29.7346 10.1492 10.5929
1 1.31102 10.9512 11.3812
1 2.10472 10.1575 11.3812
1 2.06849 10.9374 10.5722
1 1.31565 10.1686 10.584
1 2.89842 10.9512 11.3812
1 3.69212 10.1575 11.3812
1 3.68632 10.9274 10.5993
1 2.87714 10.1634 10.5753
1 4.48582 10.9512 11.3812
1 5.27952 10.1575 11.3812
1 5.26395 10.9458 10.5827
1 4.48009 10.159 10.5889
1 6.07322 10.9512 11.3812
1 6.86692 10.1575 11.3812
1 6.80594 11.0017 10.5601
1 6.07939 10.1694 10.5717
1 7.5 9.36379 11.3812
1 8.2937 8.57009 11.3812
1 8.30921 9.36857 10.5873
1 7.57418 8.57518 10.5527
1 9.0874 9.36379 11.3812
1 9.8811 8.57009 11.3812
1 9.8859 9.33619 10.5996
1 9.11074 8.53389 10.5695
1 10.6748 9.36379 11.3812
1 11.4685 8.57009 11.3812
1 11.4707 9.36286 10.6148
1 10.6829 8.5592 10.593
1 12.2622 9.36379 11.3812
1 13.0559 8.57009 11.3812
1 13.0834 9.36152 10.6115
1 12.2441 8.56897 10.6087
1 13.8496 9.36379 11.3812
1 14.6433 8.57009 11.3812
1 14.655 9.36735 10.601
1 13.8633 8.57037 10.6097
1 15.437 9.36379 11.3812
1 16.2307 8.57009 11.3812
1 16.2203 9.36357 10.6032
1 15.4237 8.5542 10.6026
1 17.0244 9.36379 11.3812
1 17.8181 8.57009 11.3812
1 17.8123 9.36679 10.5747
1 17.0454 8.59984 10.595
1 18.6118 9.36379 11.3812
1 19.4055 8.57009 11.3812
1 19.4126 9.36509 10.5829
1 18.6187 8.57177 10.5932
1 20.1992 9.36379 11.3812
1 20.9929 8.57009 11.3812
1 21.0052 9.36052 10.5818
1 20.1921 8.60075 10.5864
1 21.7866 9.36379 11.3812
1 22.5803 8.57009 11.3812
1 22.5997 9.37089 10.5875
1 21.8074 8.55551 10.574
1 23.374 9.36379 11.3812
1 24.1677 8.57009 11.3812
1 24.1704 9.35613 10.6266
1 23.3788 8.5538 10.5985
1 24.9614 9.36379 11.3812
1 25.7551 8.57009 11.3812
1 25.7757 9.36239 10.6003
1 24.9357 8.57515 10.5894
1 26.5488 9.36379 11.3812
1 27.3425 8.57009 11.3812
1 27.3609 9.38369 10.6061
1 26.5396 8.58615 10.5909
1 28.1362 9.36379 11.3812
1 28.9299 8.57009 11.3812
1 28.927 9.35503 10.5925
1 28.1405 8.57254 10.5976
1 29.7236 9.36379 11.3812
1 0.517315 8.57009 11.3812
1 0.52082 9.3772 10.6167
1 29.7069 8.5809 10.5804
1 1.31102 9.36379 11.3812
1 2.10472 8.57009 11.3812
1 2.10588 9.37334 10.5666
1 1.30947 8.58638 10.6024
1 2.89842 9.36379 11.3812
1 3.69212 8.57009 11.3812
1 3.67791 9.37657 10.5756
1 2.90207 8.55932 10.5961
1 4.48582 9.36379 11.3812
1 5.27952 8.57009 11.3812
1 5.28284 9.35569 10.5961
1 4.45316 8.57332 10.5677
1 6.07322 9.36379 11.3812
1 6.86692 8.57009 11.3812
1 6.8126 9.35191 10.5838
1 6.06462 8.55507 10.5863
1 7.5 7.77639 11.3812
1 8.2937 6.98268 11.3812
1 8.33004 7.77633 10.577
1 7.55412 6.96757 10.5771
1 9.0874 7.77639 11.3812
1 9.8811 6.98268 11.3812
1 9.86855 7.77694 10.57
1 9.12779 6.9942 10.5905
1 10.6748 7.77639 11.3812
1 11.4685 6.98268 11.3812
1 11.4652 7.76633 10.5842
1 10.6925 6.99034 10.586
1 12.2622 7.77639 11.3812
1 13.0559 6.98268 11.3812
1 13.0652 7.78181 10.5886
1 12.2743 7.00364 10.5868
1 13.8496 7.77639 11.3812
1 14.6433 6.98268 11.3812
1 14.6585 7.80536 10.5819
1 13.8794 7.01359 10.6029
1 15.437 7.77639 11.3812
1 16.2307 6.98268 11.3812
1 16.2427 7.78587 10.6045
1 15.4441 7.0103 10.5771
1 17.0244 7.77639 11.3812
1 17.8181 6.98268 11.3812
1 17.8354 7.79081 10.6002
1 17.0441 6.99989 10.5737
1 18.6118 7.77639 11.3812
1 19.4055 6.98268 11.3812
1 19.3801 7.78439 10.5707
1 18.6181 6.98659 10.604
1 20.1992 7.77639 11.3812
1 20.9929 6.98268 11.3812
1 20.9722 7.80814 10.5971
1 20.2282 6.98368 10.596
1 21.7866 7.77639 11.3812
1 22.5803 6.98268 11.3812
1 22.5773 7.78416 10.5995
1 21.7938 6.99296 10.604
1 23.374 7.77639 11.3812
1 24.1677 6.98268 11.3812
1 24.1475 7.76077 10.5841
1 23.3844 6.95585 10.5885
1 24.9614 7.77639 11.3812
1 25.7551 6.98268 11.3812
1 25.7237 7.79679 10.5839
1 24.9571 6.97884 10.6157
1 26.5488 7.77639 11.3812
1 27.3425 6.98268 11.3812
1 27.3389 7.76547 10.5932
1 26.5393 7.00063 10.5808
1 28.1362 7.77639 11.3812
1 28.9299 6.98268 11.3812
1 28.934 7.77946 10.5847
1 28.1362 6.98431 10.6078
1 29.7236 7.77639 11.3812
1 0.517315 6.98268 11.3812
1 0.510049 7.80244 10.5929
1 29.7056 6.97618 10.6083
1 1.31102 7.77639 11.3812
1 2.10472 6.98268 11.3812
1 2.09476 7.77945 10.6122
1 1.29738 7.00236 10.5896
1 2.89842 7.77639 11.3812
1 3.69212 6.98268 11.3812
1 3.68563 7.77127 10.6041
1 2.89099 6.98342 10.5963
1 4.48582 7.77639 11.3812
1 5.27952 6.98268 11.3812
1 5.23614 7.78942 10.5818
1 4.46838 6.99856 10.591
1 6.07322 7.77639 11.3812
1 6.86692 6.98268 11.3812
1 6.79704 7.76089 10.5334
1 6.03226 6.9896 10.5919
1 7.5 6.18898 11.3812
1 8.2937 5.39528 11.3812
1 8.32721 6.20045 10.5712
1 7.57026 5.41514 10.5779
1 9.0874 6.18898 11.3812
1 9.8811 5.39528 11.3812
1 9.87414 6.21811 10.5914
1 9.1304 5.41319 10.5885
1 10.6748 6.18898 11.3812
1 11.4685 5.39528 11.3812
1 11.4793 6.20376 10.5958
1 10.6696 5.41889 10.5726
1 12.2622 6.18898 11.3812
1 13.0559 5.39528 11.3812
1 13.0438 6.20368 10.594
1 12.2771 5.40182 10.6039
1 13.8496 6.18898 11.3812
1 14.6433 5.39528 11.3812
1 14.6657 6.21362 10.5977
1 13.8617 5.40148 10.5826
1 15.437 6.18898 11.3812
1 16.2307 5.39528 11.3812