9376
Atoms. Timestep: 4000000
1 7.5 3.55271e-15 10.6238
1 8.2937 29.2063 10.6238
1 8.31671 29.9205 9.78441
1 7.58302 29.1714 9.78514
1 9.0874 3.55271e-15 10.6238
1 9.8811 29.2063 10.6238
1 9.8799 29.9456 9.77469
1 9.10829 29.1654 9.82483
1 10.6748 3.55271e-15 10.6238
1 11.4685 29.2063 10.6238
1 11.482 29.9392 9.7911
1 10.6397 29.1887 9.83594
1 12.2622 3.55271e-15 10.6238
1 13.0559 29.2063 10.6238
1 13.049 29.9348 9.80705
1 12.2733 29.1812 9.83907
1 13.8496 3.55271e-15 10.6238
1 14.6433 29.2063 10.6238
1 14.6553 29.9458 9.80197
1 13.8581 29.1789 9.81695
1 15.437 3.55271e-15 10.6238
1 16.2307 29.2063 10.6238
1 16.2206 29.9175 9.797
1 15.4352 29.167 9.8211
1 17.0244 3.55271e-15 10.6238
1 17.8181 29.2063 10.6238
1 17.8125 29.932 9.78937
1 17.0242 29.1589 9.80717
1 18.6118 3.55271e-15 10.6238
1 19.4055 29.2063 10.6238
1 19.4023 29.9347 9.83388
1 18.6108 29.1849 9.82298
1 20.1992 3.55271e-15 10.6238
1 20.9929 29.2063 10.6238
1 21.0066 29.9471 9.7929
1 20.2093 29.1798 9.82066
1 21.7866 3.55271e-15 10.6238
1 22.5803 29.2063 10.6238
1 22.579 29.9262 9.80221
1 21.7815 29.1888 9.80812
1 23.374 3.55271e-15 10.6238
1 24.1677 29.2063 10.6238
1 24.161 29.9125 9.80501
1 23.3696 29.1772 9.80024
1 24.9614 3.55271e-15 10.6238
1 25.7551 29.2063 10.6238
1 25.7803 29.947 9.77264
1 24.9781 29.1675 9.81447
1 26.5488 3.55271e-15 10.6238
1 27.3425 29.2063 10.6238
1 27.3562 29.9098 9.79754
1 26.5616 29.1619 9.82195
1 28.1362 3.55271e-15 10.6238
1 28.9299 29.2063 10.6238
1 28.9384 29.9399 9.7966
1 28.1315 29.1919 9.82467
1 29.7236 3.55271e-15 10.6238
1 0.517315 29.2063 10.6238
1 0.52805 29.9273 9.78129
1 29.7321 29.193 9.80418
1 1.31102 3.55271e-15 10.6238
1 2.10472 29.2063 10.6238
1 2.11473 29.9134 9.80034
1 1.33399 29.184 9.82145
1 2.89842 3.55271e-15 10.6238
1 3.69212 29.2063 10.6238
1 3.69345 29.9114 9.7724
1 2.87611 29.1689 9.86563
1 4.48582 3.55271e-15 10.6238
1 5.27952 29.2063 10.6238
1 5.25705 29.9363 9.80252
1 4.48279 29.1992 9.8103
1 6.07322 3.55271e-15 10.6238
1 6.86692 29.2063 10.6238
1 6.80632 29.9187 9.75426
1 6.03608 29.1837 9.80508
1 7.5 28.4126 10.6238
1 8.2937 27.6189 10.6238
1 8.32183 28.4156 9.81723
1 7.56327 27.6282 9.81609
1 9.0874 28.4126 10.6238
1 9.8811 27.6189 10.6238
1 9.89243 28.3952 9.82017
1 9.11316 27.6119 9.81505
1 10.6748 28.4126 10.6238
1 11.4685 27.6189 10.6238
1 11.4874 28.3944 9.82946
1 10.6947 27.6251 9.84193
1 12.2622 28.4126 10.6238
1 13.0559 27.6189 10.6238
1 13.0615 28.3997 9.84177
1 12.2598 27.5693 9.85351
1 13.8496 28.4126 10.6238
1 14.6433 27.6189 10.6238
1 14.6368 28.3877 9.80792
1 13.8562 27.6023 9.82008
1 15.437 28.4126 10.6238
1 16.2307 27.6189 10.6238
1 16.2058 28.4116 9.82833
1 15.4508 27.6184 9.84083
1 17.0244 28.4126 10.6238
1 17.8181 27.6189 10.6238
1 17.8132 28.3849 9.82971
1 17.0225 27.6066 9.82262
1 18.6118 28.4126 10.6238
1 19.4055 27.6189 10.6238
1 19.4179 28.411 9.83565
1 18.618 27.6064 9.83417
1 20.1992 28.4126 10.6238
1 20.9929 27.6189 10.6238
1 20.9981 28.3916 9.81271
1 20.1938 27.5691 9.84622
1 21.7866 28.4126 10.6238
1 22.5803 27.6189 10.6238
1 22.5566 28.3563 9.82246
1 21.7659 27.5949 9.83829
1 23.374 28.4126 10.6238
1 24.1677 27.6189 10.6238
1 24.1842 28.4113 9.80168
1 23.3683 27.6195 9.8187
1 24.9614 28.4126 10.6238
1 25.7551 27.6189 10.6238
1 25.75 28.3993 9.8653
1 24.978 27.6152 9.81951
1 26.5488 28.4126 10.6238
1 27.3425 27.6189 10.6238
1 27.3584 28.4149 9.84255
1 26.5278 27.6319 9.83916
1 28.1362 28.4126 10.6238
1 28.9299 27.6189 10.6238
1 28.9436 28.3966 9.80391
1 28.1191 27.6225 9.79991
1 29.7236 28.4126 10.6238
1 0.517315 27.6189 10.6238
1 0.53321 28.4049 9.82382
1 29.7169 27.5927 9.82608
1 1.31102 28.4126 10.6238
1 2.10472 27.6189 10.6238
1 2.11383 28.3824 9.83993
1 1.29082 27.6264 9.82593
1 2.89842 28.4126 10.6238
1 3.69212 27.6189 10.6238
1 3.69292 28.3933 9.83311
1 2.90886 27.6267 9.85654
1 4.48582 28.4126 10.6238
1 5.27952 27.6189 10.6238
1 5.25816 28.3828 9.81622
1 4.4701 27.5956 9.83262
1 6.07322 28.4126 10.6238
1 6.86692 27.6189 10.6238
1 6.79751 28.386 9.8025
1 6.0346 27.6037 9.83886
1 7.5 26.8252 10.6238
1 8.2937 26.0315 10.6238
1 8.30042 26.8338 9.82774
1 7.54943 26.0502 9.80182
1 9.0874 26.8252 10.6238
1 9.8811 26.0315 10.6238
1 9.90977 26.8243 9.82544
1 9.11787 26.0471 9.84315
1 10.6748 26.8252 10.6238
1 11.4685 26.0315 10.6238
1 11.4593 26.8049 9.81663
1 10.6885 26.0031 9.83437
1 12.2622 26.8252 10.6238
1 13.0559 26.0315 10.6238
1 13.0502 26.8221 9.84312
1 12.2699 26.0023 9.83101
1 13.8496 26.8252 10.6238
1 14.6433 26.0315 10.6238
1 14.6349 26.8267 9.84035
1 13.862 26.0341 9.86089
1 15.437 26.8252 10.6238
1 16.2307 26.0315 10.6238
1 16.2324 26.8231 9.82694
1 15.4493 26.0221 9.81165
1 17.0244 26.8252 10.6238
1 17.8181 26.0315 10.6238
1 17.8257 26.8069 9.84932
1 17.031 26.0197 9.82638
1 18.6118 26.8252 10.6238
1 19.4055 26.0315 10.6238
1 19.4047 26.8222 9.84547
1 18.6144 25.9848 9.83441
1 20.1992 26.8252 10.6238
1 20.9929 26.0315 10.6238
1 20.9882 26.8025 9.83074
1 20.1977 26.0349 9.84405
1 21.7866 26.8252 10.6238
1 22.5803 26.0315 10.6238
1 22.5532 26.8161 9.83845
1 21.8006 26.0186 9.83622
1 23.374 26.8252 10.6238
1 24.1677 26.0315 10.6238
1 24.1698 26.8118 9.83754
1 23.3779 26.0271 9.81112
1 24.9614 26.8252 10.6238
1 25.7551 26.0315 10.6238
1 25.7305 26.8046 9.84024
1 24.9811 26.0284 9.84006
1 26.5488 26.8252 10.6238
1 27.3425 26.0315 10.6238
1 27.3422 26.799 9.83439
1 26.5378 26.0315 9.84138
1 28.1362 26.8252 10.6238
1 28.9299 26.0315 10.6238
1 28.9308 26.8128 9.8339
1 28.1296 26.0269 9.82714
1 29.7236 26.8252 10.6238
1 0.517315 26.0315 10.6238
1 0.493001 26.8423 9.81816
1 29.6977 26.0368 9.84503
1 1.31102 26.8252 10.6238
1 2.10472 26.0315 10.6238
1 2.06791 26.8556 9.82573
1 1.2895 26.0335 9.83961
1 2.89842 26.8252 10.6238
1 3.69212 26.0315 10.6238
1 3.69017 26.818 9.8483
1 2.88007 26.055 9.84398
1 4.48582 26.8252 10.6238
1 5.27952 26.0315 10.6238
1 5.2759 26.8201 9.81956
1 4.46344 26.0098 9.82124
1 6.07322 26.8252 10.6238
1 6.86692 26.0315 10.6238
1 6.81076 26.8494 9.77845
1 6.04488 26.031 9.78592
1 7.5 25.2378 10.6238
1 8.2937 24.4441 10.6238
1 8.33402 25.2543 9.81771
1 7.56754 24.4512 9.79382
1 9.0874 25.2378 10.6238
1 9.8811 24.4441 10.6238
1 9.91093 25.2417 9.81933
1 9.10753 24.4424 9.8618
1 10.6748 25.2378 10.6238
1 11.4685 24.4441 10.6238
1 11.4844 25.2063 9.82519
1 10.6885 24.4237 9.82971
1 12.2622 25.2378 10.6238
1 13.0559 24.4441 10.6238
1 13.0769 25.2192 9.83418
1 12.2927 24.4308 9.83905
1 13.8496 25.2378 10.6238
1 14.6433 24.4441 10.6238
1 14.648 25.2304 9.82694
1 13.8272 24.4059 9.82528
1 15.437 25.2378 10.6238
1 16.2307 24.4441 10.6238
1 16.2196 25.2481 9.86194
1 15.4064 24.4534 9.82502
1 17.0244 25.2378 10.6238
1 17.8181 24.4441 10.6238
1 17.8134 25.2527 9.83166
1 17.0239 24.4443 9.83428
1 18.6118 25.2378 10.6238
1 19.4055 24.4441 10.6238
1 19.4161 25.2253 9.81156
1 18.6013 24.4542 9.82009
1 20.1992 25.2378 10.6238
1 20.9929 24.4441 10.6238
1 20.9517 25.2336 9.83461
1 20.1742 24.4309 9.80878
1 21.7866 25.2378 10.6238
1 22.5803 24.4441 10.6238
1 22.5876 25.2158 9.79437
1 21.7767 24.4389 9.83394
1 23.374 25.2378 10.6238
1 24.1677 24.4441 10.6238
1 24.1596 25.2481 9.80371
1 23.3792 24.4323 9.82564
1 24.9614 25.2378 10.6238
1 25.7551 24.4441 10.6238
1 25.7653 25.2613 9.80212
1 24.9628 24.4568 9.8004
1 26.5488 25.2378 10.6238
1 27.3425 24.4441 10.6238
1 27.3337 25.2335 9.82958
1 26.5475 24.4616 9.80301
1 28.1362 25.2378 10.6238
1 28.9299 24.4441 10.6238
1 28.929 25.2262 9.83789
1 28.1316 24.4268 9.83867
1 29.7236 25.2378 10.6238
1 0.517315 24.4441 10.6238
1 0.503479 25.2485 9.84137
1 29.713 24.432 9.81925
1 1.31102 25.2378 10.6238
1 2.10472 24.4441 10.6238
1 2.094 25.2383 9.82049
1 1.31321 24.4047 9.84221
1 2.89842 25.2378 10.6238
1 3.69212 24.4441 10.6238
1 3.67397 25.2454 9.83475
1 2.86753 24.4405 9.82446
1 4.48582 25.2378 10.6238
1 5.27952 24.4441 10.6238
1 5.25329 25.2488 9.8077
1 4.46576 24.4367 9.84744
1 6.07322 25.2378 10.6238
1 6.86692 24.4441 10.6238
1 6.78921 25.2515 9.80236
1 6.03657 24.458 9.83025
1 7.5 23.6504 10.6238
1 8.2937 22.8567 10.6238
1 8.30449 23.6465 9.83199
1 7.56652 22.8564 9.79396
1 9.0874 23.6504 10.6238
1 9.8811 22.8567 10.6238
1 9.89293 23.6516 9.85896
1 9.09245 22.8873 9.82895
1 10.6748 23.6504 10.6238
1 11.4685 22.8567 10.6238
1 11.492 23.6455 9.83212
1 10.6955 22.8531 9.82803
1 12.2622 23.6504 10.6238
1 13.0559 22.8567 10.6238
1 13.073 23.6388 9.80892
1 12.2755 22.8537 9.82753
1 13.8496 23.6504 10.6238
1 14.6433 22.8567 10.6238
1 14.6221 23.6532 9.84044
1 13.8702 22.8438 9.82798
1 15.437 23.6504 10.6238
1 16.2307 22.8567 10.6238
1 16.2225 23.6606 9.82812
1 15.4159 22.8379 9.83136
1 17.0244 23.6504 10.6238
1 17.8181 22.8567 10.6238
1 17.7929 23.6483 9.82597
1 17.011 22.872 9.8443
1 18.6118 23.6504 10.6238
1 19.4055 22.8567 10.6238
1 19.3938 23.6496 9.81039
1 18.6072 22.8564 9.81913
1 20.1992 23.6504 10.6238
1 20.9929 22.8567 10.6238
1 20.9782 23.6503 9.81156
1 20.1815 22.8425 9.83964
1 21.7866 23.6504 10.6238
1 22.5803 22.8567 10.6238
1 22.601 23.6432 9.82916
1 21.7565 22.861 9.81971
1 23.374 23.6504 10.6238
1 24.1677 22.8567 10.6238
1 24.152 23.6471 9.83925
1 23.3726 22.8527 9.82106
1 24.9614 23.6504 10.6238
1 25.7551 22.8567 10.6238
1 25.7549 23.6664 9.81873
1 24.9639 22.8642 9.85026
1 26.5488 23.6504 10.6238
1 27.3425 22.8567 10.6238
1 27.3466 23.66 9.81215
1 26.5316 22.8512 9.84179
1 28.1362 23.6504 10.6238
1 28.9299 22.8567 10.6238
1 28.9201 23.6368 9.84173
1 28.1541 22.8447 9.84998
1 29.7236 23.6504 10.6238
1 0.517315 22.8567 10.6238
1 0.524089 23.6432 9.85095
1 29.7327 22.8455 9.86713
1 1.31102 23.6504 10.6238
1 2.10472 22.8567 10.6238
1 2.09861 23.6341 9.8258
1 1.29718 22.8768 9.83271
1 2.89842 23.6504 10.6238
1 3.69212 22.8567 10.6238
1 3.66708 23.6499 9.82034
1 2.87752 22.8517 9.84273
1 4.48582 23.6504 10.6238
1 5.27952 22.8567 10.6238
1 5.26674 23.6762 9.83469
1 4.4895 22.8643 9.79865
1 6.07322 23.6504 10.6238
1 6.86692 22.8567 10.6238
1 6.78505 23.6459 9.78831
1 6.05184 22.8465 9.81378
1 7.5 22.063 10.6238
1 8.2937 21.2693 10.6238
1 8.34736 22.075 9.82868
1 7.57443 21.2609 9.79529
1 9.0874 22.063 10.6238
1 9.8811 21.2693 10.6238
1 9.88853 22.0471 9.8451
1 9.10922 21.2488 9.82113
1 10.6748 22.063 10.6238
1 11.4685 21.2693 10.6238
1 11.4705 22.0699 9.84083
1 10.6825 21.2574 9.8365
1 12.2622 22.063 10.6238
1 13.0559 21.2693 10.6238
1 13.0648 22.0776 9.8308
1 12.262 21.2554 9.85837
1 13.8496 22.063 10.6238
1 14.6433 21.2693 10.6238
1 14.6478 22.0421 9.82138
1 13.8529 21.2738 9.84246
1 15.437 22.063 10.6238
1 16.2307 21.2693 10.6238
1 16.2335 22.0628 9.82757
1 15.4394 21.2675 9.82444
1 17.0244 22.063 10.6238
1 17.8181 21.2693 10.6238
1 17.7992 22.0755 9.83718
1 17.0246 21.2827 9.83027
1 18.6118 22.063 10.6238
1 19.4055 21.2693 10.6238
1 19.385 22.0489 9.82973
1 18.5787 21.253 9.83966
1 20.1992 22.063 10.6238
1 20.9929 21.2693 10.6238
1 20.9961 22.0718 9.83352
1 20.1904 21.2696 9.84463
1 21.7866 22.063 10.6238
1 22.5803 21.2693 10.6238
1 22.5689 22.0774 9.82448
1 21.7923 21.2408 9.81829
1 23.374 22.063 10.6238
1 24.1677 21.2693 10.6238
1 24.1726 22.04 9.83747
1 23.3781 21.2824 9.8352
1 24.9614 22.063 10.6238
1 25.7551 21.2693 10.6238
1 25.7517 22.0466 9.83647
1 24.9653 21.2822 9.82231
1 26.5488 22.063 10.6238
1 27.3425 21.2693 10.6238
1 27.3447 22.059 9.82899
1 26.5408 21.2459 9.83564
1 28.1362 22.063 10.6238
1 28.9299 21.2693 10.6238
1 28.9447 22.0582 9.81823
1 28.1476 21.2597 9.83725
1 29.7236 22.063 10.6238
1 0.517315 21.2693 10.6238
1 0.515143 22.046 9.82114
1 29.7124 21.2723 9.81079
1 1.31102 22.063 10.6238
1 2.10472 21.2693 10.6238
1 2.07508 22.068 9.85883
1 1.30564 21.2721 9.83308
1 2.89842 22.063 10.6238
1 3.69212 21.2693 10.6238
1 3.68016 22.0792 9.84228
1 2.89508 21.2669 9.82432
1 4.48582 22.063 10.6238
1 5.27952 21.2693 10.6238
1 5.2751 22.0704 9.81204
1 4.47988 21.2675 9.82702
1 6.07322 22.063 10.6238
1 6.86692 21.2693 10.6238
1 6.80544 22.0557 9.79721
1 6.03106 21.2649 9.8337
1 7.5 20.4756 10.6238
1 8.2937 19.6819 10.6238
1 8.34371 20.4655 9.82677
1 7.57395 19.6883 9.78871
1 9.0874 20.4756 10.6238
1 9.8811 19.6819 10.6238
1 9.89665 20.4653 9.83021
1 9.08696 19.6809 9.83333
1 10.6748 20.4756 10.6238
1 11.4685 19.6819 10.6238
1 11.4817 20.4757 9.85836
1 10.6831 19.6698 9.85495
1 12.2622 20.4756 10.6238
1 13.0559 19.6819 10.6238
1 13.0761 20.4717 9.82145
1 12.2715 19.6981 9.82383
1 13.8496 20.4756 10.6238
1 14.6433 19.6819 10.6238
1 14.6562 20.4905 9.83155
1 13.8343 19.705 9.82544
1 15.437 20.4756 10.6238
1 16.2307 19.6819 10.6238
1 16.2288 20.4739 9.80172
1 15.4215 19.6803 9.83654
1 17.0244 20.4756 10.6238
1 17.8181 19.6819 10.6238
1 17.8089 20.4543 9.84114
1 17.0285 19.6569 9.82852
1 18.6118 20.4756 10.6238
1 19.4055 19.6819 10.6238
1 19.4167 20.4764 9.83304
1 18.6144 19.6875 9.80866
1 20.1992 20.4756 10.6238
1 20.9929 19.6819 10.6238
1 20.9788 20.4728 9.83954
1 20.1875 19.6808 9.82746
1 21.7866 20.4756 10.6238
1 22.5803 19.6819 10.6238
1 22.5628 20.4603 9.81566
1 21.7641 19.7037 9.8234
1 23.374 20.4756 10.6238
1 24.1677 19.6819 10.6238
1 24.1491 20.4749 9.84587
1 23.3731 19.6942 9.82212
1 24.9614 20.4756 10.6238
1 25.7551 19.6819 10.6238
1 25.7543 20.4702 9.8353
1 24.941 19.6853 9.81538
1 26.5488 20.4756 10.6238
1 27.3425 19.6819 10.6238
1 27.329 20.4749 9.82474
1 26.5423 19.6591 9.84219
1 28.1362 20.4756 10.6238
1 28.9299 19.6819 10.6238
1 28.9247 20.48 9.81653
1 28.1274 19.6865 9.82404
1 29.7236 20.4756 10.6238
1 0.517315 19.6819 10.6238
1 0.492961 20.4977 9.83334
1 29.7203 19.6841 9.81643
1 1.31102 20.4756 10.6238
1 2.10472 19.6819 10.6238
1 2.07582 20.4468 9.82265
1 1.30216 19.6942 9.84468
1 2.89842 20.4756 10.6238
1 3.69212 19.6819 10.6238
1 3.67694 20.4567 9.82732
1 2.8937 19.6639 9.83459
1 4.48582 20.4756 10.6238
1 5.27952 19.6819 10.6238
1 5.26992 20.4695 9.82575
1 4.48878 19.6674 9.85049
1 6.07322 20.4756 10.6238
1 6.86692 19.6819 10.6238
1 6.81955 20.4717 9.79162
1 6.05573 19.6946 9.82249
1 7.5 18.8882 10.6238
1 8.2937 18.0945 10.6238
1 8.33642 18.8861 9.82909
1 7.582 18.1287 9.7964
1 9.0874 18.8882 10.6238
1 9.8811 18.0945 10.6238
1 9.86445 18.9021 9.86289
1 9.11125 18.0804 9.81639
1 10.6748 18.8882 10.6238
1 11.4685 18.0945 10.6238
1 11.4904 18.8676 9.84085
1 10.7075 18.1091 9.84334
1 12.2622 18.8882 10.6238
1 13.0559 18.0945 10.6238
1 13.0684 18.8798 9.83231
1 12.2754 18.0893 9.82833
1 13.8496 18.8882 10.6238
1 14.6433 18.0945 10.6238
1 14.673 18.8949 9.7927
1 13.8507 18.1037 9.84115
1 15.437 18.8882 10.6238
1 16.2307 18.0945 10.6238
1 16.2166 18.8814 9.81928
1 15.4369 18.0752 9.8043
1 17.0244 18.8882 10.6238
1 17.8181 18.0945 10.6238
1 17.8158 18.8795 9.81456
1 17.0083 18.1042 9.8037
1 18.6118 18.8882 10.6238
1 19.4055 18.0945 10.6238
1 19.3892 18.9005 9.83918
1 18.5965 18.1135 9.82159
1 20.1992 18.8882 10.6238
1 20.9929 18.0945 10.6238
1 20.9784 18.8899 9.83978
1 20.1957 18.0924 9.83208
1 21.7866 18.8882 10.6238
1 22.5803 18.0945 10.6238
1 22.5564 18.8733 9.81561
1 21.7451 18.0809 9.83519
1 23.374 18.8882 10.6238
1 24.1677 18.0945 10.6238
1 24.1579 18.8926 9.80181
1 23.3589 18.0912 9.81315
1 24.9614 18.8882 10.6238
1 25.7551 18.0945 10.6238
1 25.7527 18.9055 9.82528
1 24.9558 18.0918 9.82324
1 26.5488 18.8882 10.6238
1 27.3425 18.0945 10.6238
1 27.3418 18.8723 9.80995
1 26.5466 18.087 9.82652
1 28.1362 18.8882 10.6238
1 28.9299 18.0945 10.6238
1 28.9538 18.8908 9.82432
1 28.1597 18.1189 9.81796
1 29.7236 18.8882 10.6238
1 0.517315 18.0945 10.6238
1 0.524209 18.8792 9.82154
1 29.6984 18.0821 9.83277
1 1.31102 18.8882 10.6238
1 2.10472 18.0945 10.6238
1 2.05897 18.8808 9.81581
1 1.3044 18.0986 9.8076
1 2.89842 18.8882 10.6238
1 3.69212 18.0945 10.6238
1 3.69741 18.9009 9.83424
1 2.8962 18.1278 9.86297
1 4.48582 18.8882 10.6238
1 5.27952 18.0945 10.6238
1 5.29132 18.8756 9.83454
1 4.4866 18.098 9.83063
1 6.07322 18.8882 10.6238
1 6.86692 18.0945 10.6238
1 6.81613 18.9143 9.78154
1 6.05557 18.11 9.81805
1 7.5 17.3008 10.6238
1 8.2937 16.5071 10.6238
1 8.30359 17.3195 9.82698
1 7.55875 16.5217 9.80502
1 9.0874 17.3008 10.6238
1 9.8811 16.5071 10.6238
1 9.88689 17.3213 9.82685
1 9.11478 16.5294 9.82435
1 10.6748 17.3008 10.6238
1 11.4685 16.5071 10.6238
1 11.4816 17.3094 9.82441
1 10.6723 16.5277 9.83441
1 12.2622 17.3008 10.6238
1 13.0559 16.5071 10.6238
1 13.0715 17.3 9.82394
1 12.2691 16.5179 9.82697
1 13.8496 17.3008 10.6238
1 14.6433 16.5071 10.6238
1 14.65 17.3202 9.84536
1 13.8595 16.5057 9.84719
1 15.437 17.3008 10.6238
1 16.2307 16.5071 10.6238
1 16.2315 17.3103 9.82451
1 15.44 16.5002 9.82617
1 17.0244 17.3008 10.6238
1 17.8181 16.5071 10.6238
1 17.8283 17.2841 9.83221
1 17.0169 16.5111 9.83628
1 18.6118 17.3008 10.6238
1 19.4055 16.5071 10.6238
1 19.3808 17.3042 9.81582
1 18.6108 16.4914 9.81155
1 20.1992 17.3008 10.6238
1 20.9929 16.5071 10.6238
1 20.9678 17.3 9.81966
1 20.1957 16.5086 9.81071
1 21.7866 17.3008 10.6238
1 22.5803 16.5071 10.6238
1 22.5729 17.2841 9.82904
1 21.7803 16.5365 9.84625
1 23.374 17.3008 10.6238
1 24.1677 16.5071 10.6238
1 24.1393 17.3003 9.84075
1 23.3943 16.4986 9.82143
1 24.9614 17.3008 10.6238
1 25.7551 16.5071 10.6238
1 25.7758 17.2719 9.8343
1 24.9401 16.5104 9.80667
1 26.5488 17.3008 10.6238
1 27.3425 16.5071 10.6238
1 27.3739 17.3101 9.83674
1 26.5939 16.4959 9.83504
1 28.1362 17.3008 10.6238
1 28.9299 16.5071 10.6238
1 28.9374 17.3011 9.83328
1 28.14 16.5104 9.82271
1 29.7236 17.3008 10.6238
1 0.517315 16.5071 10.6238
1 0.502435 17.3184 9.81959
1 29.7067 16.5109 9.82934
1 1.31102 17.3008 10.6238
1 2.10472 16.5071 10.6238
1 2.11535 17.3222 9.82348
1 1.31255 16.5335 9.86266
1 2.89842 17.3008 10.6238
1 3.69212 16.5071 10.6238
1 3.66881 17.3127 9.84196
1 2.90388 16.4952 9.83496
1 4.48582 17.3008 10.6238
1 5.27952 16.5071 10.6238
1 5.27757 17.3082 9.85373
1 4.44837 16.5115 9.86196
1 6.07322 17.3008 10.6238
1 6.86692 16.5071 10.6238
1 6.81731 17.3257 9.79639
1 6.06433 16.5195 9.82561
1 7.5 15.7134 10.6238
1 8.2937 14.9197 10.6238
1 8.31852 15.7114 9.80914
1 7.5599 14.9006 9.80596
1 9.0874 15.7134 10.6238
1 9.8811 14.9197 10.6238
1 9.8859 15.7316 9.82125
1 9.1072 14.9065 9.81763
1 10.6748 15.7134 10.6238
1 11.4685 14.9197 10.6238
1 11.4663 15.7273 9.84223
1 10.6819 14.913 9.82846
1 12.2622 15.7134 10.6238
1 13.0559 14.9197 10.6238
1 13.0483 15.7042 9.82793
1 12.2701 14.9151 9.83411
1 13.8496 15.7134 10.6238
1 14.6433 14.9197 10.6238
1 14.6513 15.68 9.83443
1 13.8547 14.8863 9.83685
1 15.437 15.7134 10.6238
1 16.2307 14.9197 10.6238
1 16.2405 15.7096 9.8487
1 15.4488 14.9421 9.83899
1 17.0244 15.7134 10.6238
1 17.8181 14.9197 10.6238
1 17.849 15.7209 9.82331
1 17.0381 14.9306 9.84643
1 18.6118 15.7134 10.6238
1 19.4055 14.9197 10.6238
1 19.4158 15.7279 9.83223
1 18.6222 14.9038 9.85452
1 20.1992 15.7134 10.6238
1 20.9929 14.9197 10.6238
1 20.9964 15.736 9.8397
1 20.1828 14.9333 9.8531
1 21.7866 15.7134 10.6238
1 22.5803 14.9197 10.6238
1 22.5761 15.7258 9.80978
1 21.7813 14.9236 9.84116
1 23.374 15.7134 10.6238
1 24.1677 14.9197 10.6238
1 24.1533 15.6959 9.83646
1 23.3532 14.9003 9.8491
1 24.9614 15.7134 10.6238
1 25.7551 14.9197 10.6238
1 25.7568 15.7143 9.83959
1 24.9619 14.9136 9.82452
1 26.5488 15.7134 10.6238
1 27.3425 14.9197 10.6238
1 27.3482 15.6799 9.81916
1 26.5686 14.9016 9.83564
1 28.1362 15.7134 10.6238
1 28.9299 14.9197 10.6238
1 28.9522 15.7028 9.81739
1 28.1442 14.9189 9.81888
1 29.7236 15.7134 10.6238
1 0.517315 14.9197 10.6238
1 0.503509 15.7316 9.82284
1 29.7239 14.9355 9.83914
1 1.31102 15.7134 10.6238
1 2.10472 14.9197 10.6238
1 2.09542 15.7406 9.84432
1 1.31078 14.9369 9.81682
1 2.89842 15.7134 10.6238
1 3.69212 14.9197 10.6238
1 3.70264 15.7105 9.83671
1 2.88928 14.9311 9.84111
1 4.48582 15.7134 10.6238
1 5.27952 14.9197 10.6238
1 5.28154 15.7037 9.82013
1 4.46003 14.9044 9.87031
1 6.07322 15.7134 10.6238
1 6.86692 14.9197 10.6238
1 6.80609 15.7267 9.79304
1 6.04824 14.9174 9.79739
1 7.5 14.126 10.6238
1 8.2937 13.3323 10.6238
1 8.32867 14.128 9.82615
1 7.55172 13.3418 9.7814
1 9.0874 14.126 10.6238
1 9.8811 13.3323 10.6238
1 9.89461 14.1092 9.81246
1 9.10939 13.3279 9.83707
1 10.6748 14.126 10.6238
1 11.4685 13.3323 10.6238
1 11.4954 14.1383 9.83178
1 10.6976 13.3349 9.83914
1 12.2622 14.126 10.6238
1 13.0559 13.3323 10.6238
1 13.0279 14.1341 9.81682
1 12.2666 13.3207 9.83415
1 13.8496 14.126 10.6238
1 14.6433 13.3323 10.6238
1 14.6621 14.1262 9.82614
1 13.8744 13.3493 9.83867
1 15.437 14.126 10.6238
1 16.2307 13.3323 10.6238
1 16.2271 14.1182 9.8474
1 15.438 13.3407 9.83509
1 17.0244 14.126 10.6238
1 17.8181 13.3323 10.6238
1 17.8161 14.1301 9.81995
1 17.0173 13.3389 9.85579
1 18.6118 14.126 10.6238
1 19.4055 13.3323 10.6238
1 19.3869 14.1227 9.83789
1 18.6121 13.324 9.82764
1 20.1992 14.126 10.6238
1 20.9929 13.3323 10.6238
1 20.982 14.1489 9.81889
1 20.1976 13.321 9.83473
1 21.7866 14.126 10.6238
1 22.5803 13.3323 10.6238
1 22.581 14.1427 9.85722
1 21.7685 13.3547 9.82723
1 23.374 14.126 10.6238
1 24.1677 13.3323 10.6238
1 24.1842 14.1087 9.83591
1 23.3665 13.3473 9.816
1 24.9614 14.126 10.6238
1 25.7551 13.3323 10.6238
1 25.7753 14.1308 9.84044
1 24.9357 13.3382 9.8195
1 26.5488 14.126 10.6238
1 27.3425 13.3323 10.6238
1 27.3524 14.1099 9.82778
1 26.5549 13.3145 9.82779
1 28.1362 14.126 10.6238
1 28.9299 13.3323 10.6238
1 28.9236 14.1373 9.84122
1 28.1264 13.3097 9.80745
1 29.7236 14.126 10.6238
1 0.517315 13.3323 10.6238
1 0.514863 14.1192 9.83135
1 29.7405 13.341 9.85896
1 1.31102 14.126 10.6238
1 2.10472 13.3323 10.6238
1 2.09242 14.1305 9.81065
1 1.31279 13.3511 9.83088
1 2.89842 14.126 10.6238
1 3.69212 13.3323 10.6238
1 3.67359 14.1237 9.8292
1 2.89381 13.335 9.84318
1 4.48582 14.126 10.6238
1 5.27952 13.3323 10.6238
1 5.26044 14.1076 9.81996
1 4.46531 13.3587 9.8225
1 6.07322 14.126 10.6238
1 6.86692 13.3323 10.6238
1 6.80197 14.117 9.79434
1 6.03731 13.3314 9.81161
1 7.5 12.5386 10.6238
1 8.2937 11.7449 10.6238
1 8.35892 12.5416 9.82174
1 7.57275 11.7445 9.78664
1 9.0874 12.5386 10.6238
1 9.8811 11.7449 10.6238
1 9.89551 12.5293 9.79693
1 9.11388 11.7431 9.8158
1 10.6748 12.5386 10.6238
1 11.4685 11.7449 10.6238
1 11.4741 12.5228 9.85616
1 10.6793 11.7442 9.84089
1 12.2622 12.5386 10.6238
1 13.0559 11.7449 10.6238
1 13.0778 12.5344 9.82861
1 12.2774 11.7368 9.85164
1 13.8496 12.5386 10.6238
1 14.6433 11.7449 10.6238
1 14.644 12.5388 9.84054
1 13.8615 11.7197 9.83373
1 15.437 12.5386 10.6238
1 16.2307 11.7449 10.6238
1 16.2367 12.535 9.84456
1 15.4273 11.7312 9.84044
1 17.0244 12.5386 10.6238
1 17.8181 11.7449 10.6238
1 17.8386 12.5301 9.81684
1 17.0249 11.7325 9.84816
1 18.6118 12.5386 10.6238
1 19.4055 11.7449 10.6238
1 19.4244 12.5282 9.82252
1 18.5998 11.7434 9.82909
1 20.1992 12.5386 10.6238
1 20.9929 11.7449 10.6238
1 20.9922 12.513 9.83749
1 20.1945 11.7379 9.82126
1 21.7866 12.5386 10.6238
1 22.5803 11.7449 10.6238
1 22.5591 12.5488 9.82635
1 21.7997 11.7476 9.84448
1 23.374 12.5386 10.6238
1 24.1677 11.7449 10.6238
1 24.1304 12.543 9.83936
1 23.3608 11.7494 9.80757
1 24.9614 12.5386 10.6238
1 25.7551 11.7449 10.6238
1 25.7317 12.5414 9.81321
1 24.948 11.7606 9.81116
1 26.5488 12.5386 10.6238
1 27.3425 11.7449 10.6238
1 27.3292 12.5352 9.83733
1 26.5399 11.7496 9.82815
1 28.1362 12.5386 10.6238
1 28.9299 11.7449 10.6238
1 28.9114 12.5507 9.82107
1 28.1215 11.7721 9.83552
1 29.7236 12.5386 10.6238
1 0.517315 11.7449 10.6238
1 0.522147 12.5328 9.82553
1 29.7151 11.7748 9.84034
1 1.31102 12.5386 10.6238
1 2.10472 11.7449 10.6238
1 2.08829 12.5253 9.80888
1 1.28236 11.7394 9.82864
1 2.89842 12.5386 10.6238
1 3.69212 11.7449 10.6238
1 3.69125 12.5354 9.83295
1 2.89404 11.7387 9.82502
1 4.48582 12.5386 10.6238
1 5.27952 11.7449 10.6238
1 5.22895 12.5291 9.82814
1 4.4512 11.7254 9.84275
1 6.07322 12.5386 10.6238
1 6.86692 11.7449 10.6238
1 6.81292 12.5228 9.80316
1 6.05372 11.7367 9.82279
1 7.5 10.9512 10.6238
1 8.2937 10.1575 10.6238
1 8.3089 10.947 9.81716
1 7.56419 10.147 9.77923
1 9.0874 10.9512 10.6238
1 9.8811 10.1575 10.6238
1 9.87637 10.9529 9.83128
1 9.10598 10.1545 9.80385
1 10.6748 10.9512 10.6238
1 11.4685 10.1575 10.6238
1 11.468 10.9416 9.82315
1 10.6837 10.1746 9.81675
1 12.2622 10.9512 10.6238
1 13.0559 10.1575 10.6238
1 13.0555 10.9407 9.82059
1 12.2653 10.1429 9.81631
1 13.8496 10.9512 10.6238
1 14.6433 10.1575 10.6238
1 14.6308 10.943 9.82487
1 13.8471 10.1508 9.83105
1 15.437 10.9512 10.6238
1 16.2307 10.1575 10.6238
1 16.2408 10.9563 9.83664
1 15.4546 10.1444 9.83665
1 17.0244 10.9512 10.6238
1 17.8181 10.1575 10.6238
1 17.8122 10.9426 9.83306
1 17.0525 10.14 9.81476
1 18.6118 10.9512 10.6238
1 19.4055 10.1575 10.6238
1 19.3736 10.9519 9.84766
1 18.606 10.155 9.82216
1 20.1992 10.9512 10.6238
1 20.9929 10.1575 10.6238
1 20.9926 10.95 9.86575
1 20.2055 10.185 9.82803
1 21.7866 10.9512 10.6238
1 22.5803 10.1575 10.6238
1 22.6067 10.9675 9.82662
1 21.8007 10.1612 9.84027
1 23.374 10.9512 10.6238
1 24.1677 10.1575 10.6238
1 24.1678 10.9549 9.82492
1 23.3803 10.178 9.8227
1 24.9614 10.9512 10.6238
1 25.7551 10.1575 10.6238
1 25.7706 10.9674 9.84811
1 24.9706 10.1775 9.81602
1 26.5488 10.9512 10.6238
1 27.3425 10.1575 10.6238
1 27.3333 10.9586 9.85436
1 26.5464 10.166 9.81003
1 28.1362 10.9512 10.6238
1 28.9299 10.1575 10.6238
1 28.9469 10.9549 9.8258
1 28.1466 10.1549 9.83808
1 29.7236 10.9512 10.6238
1 0.517315 10.1575 10.6238
1 0.497614 10.9304 9.82395
1 29.6903 10.139 9.83874
1 1.31102 10.9512 10.6238
1 2.10472 10.1575 10.6238
1 2.05923 10.9456 9.83517
1 1.29986 10.1624 9.82017
1 2.89842 10.9512 10.6238
1 3.69212 10.1575 10.6238
1 3.68762 10.8978 9.83295
1 2.87069 10.1383 9.82508
1 4.48582 10.9512 10.6238
1 5.27952 10.1575 10.6238
1 5.26517 10.933 9.82275
1 4.4789 10.1494 9.84506
1 6.07322 10.9512 10.6238
1 6.86692 10.1575 10.6238
1 6.80255 10.9253 9.81664
1 6.0329 10.1564 9.82398
1 7.5 9.36379 10.6238
1 8.2937 8.57009 10.6238
1 8.30709 9.35134 9.83196
1 7.55556 8.56285 9.80479
1 9.0874 9.36379 10.6238
1 9.8811 8.57009 10.6238
1 9.88392 9.34281 9.83993
1 9.09264 8.55982 9.80303
1 10.6748 9.36379 10.6238
1 11.4685 8.57009 10.6238
1 11.4588 9.36857 9.83295
1 10.6822 8.57228 9.83057
1 12.2622 9.36379 10.6238
1 13.0559 8.57009 10.6238
1 13.0653 9.36206 9.83611
1 12.2554 8.57292 9.84638
1 13.8496 9.36379 10.6238
1 14.6433 8.57009 10.6238
1 14.642 9.32387 9.82932
1 13.8582 8.6097 9.8354
1 15.437 9.36379 10.6238
1 16.2307 8.57009 10.6238
1 16.2524 9.35618 9.83469
1 15.4369 8.58614 9.8312
1 17.0244 9.36379 10.6238
1 17.8181 8.57009 10.6238
1 17.8276 9.37002 9.82984
1 17.0197 8.57087 9.85508
1 18.6118 9.36379 10.6238
1 19.4055 8.57009 10.6238
1 19.4354 9.37197 9.84528
1 18.6264 8.58105 9.8073
1 20.1992 9.36379 10.6238
1 20.9929 8.57009 10.6238
1 20.9779 9.37099 9.80606
1 20.2043 8.57042 9.84658
1 21.7866 9.36379 10.6238
1 22.5803 8.57009 10.6238
1 22.5867 9.37384 9.84518
1 21.7902 8.57183 9.84013
1 23.374 9.36379 10.6238
1 24.1677 8.57009 10.6238
1 24.1676 9.36735 9.83068
1 23.3801 8.58016 9.85841
1 24.9614 9.36379 10.6238
1 25.7551 8.57009 10.6238
1 25.7496 9.38482 9.81769
1 24.9529 8.57921 9.8145
1 26.5488 9.36379 10.6238
1 27.3425 8.57009 10.6238
1 27.3324 9.36966 9.8146
1 26.5497 8.55897 9.82908
1 28.1362 9.36379 10.6238
1 28.9299 8.57009 10.6238
1 28.9385 9.34501 9.83599
1 28.1247 8.58519 9.84678
1 29.7236 9.36379 10.6238
1 0.517315 8.57009 10.6238
1 0.498187 9.37493 9.8315
1 29.7351 8.56039 9.85249
1 1.31102 9.36379 10.6238
1 2.10472 8.57009 10.6238
1 2.09002 9.35294 9.80026
1 1.29343 8.55981 9.81984
1 2.89842 9.36379 10.6238
1 3.69212 8.57009 10.6238
1 3.66256 9.37202 9.80682
1 2.88243 8.55839 9.83881
1 4.48582 9.36379 10.6238
1 5.27952 8.57009 10.6238
1 5.2548 9.36281 9.83381
1 4.47538 8.58065 9.8343
1 6.07322 9.36379 10.6238
1 6.86692 8.57009 10.6238
1 6.79718 9.35879 9.79953
1 6.05946 8.57012 9.7988
1 7.5 7.77639 10.6238
1 8.2937 6.98268 10.6238
1 8.31965 7.77307 9.81046
1 7.56358 6.9775 9.80321
1 9.0874 7.77639 10.6238
1 9.8811 6.98268 10.6238
1 9.88244 7.8043 9.85711
1 9.09626 6.99176 9.83384
1 10.6748 7.77639 10.6238
1 11.4685 6.98268 10.6238
1 11.4684 7.77373 9.83607
1 10.673 6.97577 9.84868
1 12.2622 7.77639 10.6238
1 13.0559 6.98268 10.6238
1 13.0524 7.79484 9.83336
1 12.2472 6.99407 9.80009
1 13.8496 7.77639 10.6238
1 14.6433 6.98268 10.6238
1 14.6199 7.75622 9.81311
1 13.8364 6.95021 9.83518
1 15.437 7.77639 10.6238
1 16.2307 6.98268 10.6238
1 16.2223 7.77542 9.81395
1 15.4298 6.977 9.82874
1 17.0244 7.77639 10.6238
1 17.8181 6.98268 10.6238
1 17.8285 7.79837 9.82119
1 17.0343 7.00754 9.83627
1 18.6118 7.77639 10.6238
1 19.4055 6.98268 10.6238
1 19.4043 7.80456 9.82181
1 18.6037 6.99336 9.847
1 20.1992 7.77639 10.6238
1 20.9929 6.98268 10.6238
1 20.9769 7.77184 9.84681
1 20.1816 7.01361 9.84996
1 21.7866 7.77639 10.6238
1 22.5803 6.98268 10.6238
1 22.5871 7.76797 9.84501
1 21.7954 6.99163 9.82552
1 23.374 7.77639 10.6238
1 24.1677 6.98268 10.6238
1 24.1567 7.7793 9.82543
1 23.3822 6.97303 9.84072
1 24.9614 7.77639 10.6238
1 25.7551 6.98268 10.6238
1 25.7633 7.80185 9.83062
1 24.9789 6.98312 9.83505
1 26.5488 7.77639 10.6238
1 27.3425 6.98268 10.6238
1 27.3298 7.76194 9.82097
1 26.5161 6.96865 9.80383
1 28.1362 7.77639 10.6238
1 28.9299 6.98268 10.6238
1 28.9181 7.78425 9.84039
1 28.1442 6.99759 9.81449
1 29.7236 7.77639 10.6238
1 0.517315 6.98268 10.6238
1 0.48259 7.78081 9.82165
1 29.7303 6.97954 9.82457
1 1.31102 7.77639 10.6238
1 2.10472 6.98268 10.6238
1 2.08663 7.77045 9.83891
1 1.2899 7.01379 9.8484
1 2.89842 7.77639 10.6238
1 3.69212 6.98268 10.6238
1 3.68904 7.7591 9.83263
1 2.88687 6.9997 9.83748
1 4.48582 7.77639 10.6238
1 5.27952 6.98268 10.6238
1 5.25819 7.76328 9.84028
1 4.47013 6.98684 9.80154
1 6.07322 7.77639 10.6238
1 6.86692 6.98268 10.6238
1 6.80899 7.76977 9.79397
1 6.0331 6.98272 9.80873
1 7.5 6.18898 10.6238
1 8.2937 5.39528 10.6238
1 8.2988 6.19374 9.8337
1 7.54166 5.427 9.84173
1 9.0874 6.18898 10.6238
1 9.8811 5.39528 10.6238
1 9.90213 6.17341 9.83872
1 9.10163 5.39854 9.83127
1 10.6748 6.18898 10.6238
1 11.4685 5.39528 10.6238
1 11.4603 6.19544 9.85228
1 10.6966 5.37377 9.82151
1 12.2622 6.18898 10.6238
1 13.0559 5.39528 10.6238
1 13.0616 6.16874 9.83503
1 12.278 5.39196 9.81742
1 13.8496 6.18898 10.6238
1 14.6433 5.39528 10.6238
1 14.6103 6.19248 9.83042
1 13.872 5.40349 9.83706
1 15.437 6.18898 10.6238
1 16.2307 5.39528 10.6238
1 16.2241 6.20951 9.83845