12976
Atoms. Timestep: 4000000
1 15 7.10543e-15 15.1108
1 15.7937 29.2063 15.1108
1 15.8224 29.9183 14.2543
1 15.0485 29.1658 14.2733
1 16.5874 7.10543e-15 15.1108
1 17.3811 29.2063 15.1108
1 17.3959 29.9111 14.279
1 16.5917 29.1757 14.2883
1 18.1748 7.10543e-15 15.1108
1 18.9685 29.2063 15.1108
1 18.9603 29.9487 14.2825
1 18.1689 29.1498 14.3114
1 19.7622 7.10543e-15 15.1108
1 20.5559 29.2063 15.1108
1 20.557 29.9077 14.2799
1 19.7608 29.1762 14.3173
1 21.3496 7.10543e-15 15.1108
1 22.1433 29.2063 15.1108
1 22.1742 29.9242 14.2831
1 21.3747 29.1538 14.2971
1 22.937 7.10543e-15 15.1108
1 23.7307 29.2063 15.1108
1 23.7524 29.9275 14.2823
1 22.9657 29.1582 14.3241
1 24.5244 7.10543e-15 15.1108
1 25.3181 29.2063 15.1108
1 25.3171 29.9424 14.3026
1 24.5314 29.1715 14.2896
1 26.1118 7.10543e-15 15.1108
1 26.9055 29.2063 15.1108
1 26.8753 29.9262 14.2937
1 26.079 29.1736 14.3309
1 27.6992 7.10543e-15 15.1108
1 28.4929 29.2063 15.1108
1 28.4789 29.9442 14.2686
1 27.6694 29.1883 14.313
1 29.2866 7.10543e-15 15.1108
1 0.08031 29.2063 15.1108
1 0.110348 29.9372 14.2745
1 29.2969 29.1894 14.3127
1 0.874011 7.10543e-15 15.1108
1 1.66771 29.2063 15.1108
1 1.68735 29.925 14.2946
1 0.865305 29.1887 14.317
1 2.46141 7.10543e-15 15.1108
1 3.25511 29.2063 15.1108
1 3.25455 29.9243 14.3096
1 2.46057 29.1474 14.3189
1 4.04881 7.10543e-15 15.1108
1 4.84251 29.2063 15.1108
1 4.82069 29.9267 14.2707
1 4.07028 29.1736 14.3195
1 5.63621 7.10543e-15 15.1108
1 6.42991 29.2063 15.1108
1 6.40867 29.9456 14.2959
1 5.63465 29.1843 14.328
1 7.22361 7.10543e-15 15.1108
1 8.01732 29.2063 15.1108
1 7.9883 29.9392 14.2897
1 7.1933 29.1631 14.319
1 8.81102 7.10543e-15 15.1108
1 9.60472 29.2063 15.1108
1 9.60428 29.9478 14.2763
1 8.82078 29.1731 14.3058
1 10.3984 7.10543e-15 15.1108
1 11.1921 29.2063 15.1108
1 11.1898 29.9255 14.2933
1 10.4079 29.1984 14.3083
1 11.9858 7.10543e-15 15.1108
1 12.7795 29.2063 15.1108
1 12.7821 29.9505 14.2914
1 11.9714 29.1749 14.2716
1 13.5732 7.10543e-15 15.1108
1 14.3669 29.2063 15.1108
1 14.3039 29.9509 14.2481
1 13.5312 29.1778 14.3161
1 15 28.4126 15.1108
1 15.7937 27.6189 15.1108
1 15.8196 28.4222 14.3077
1 15.0607 27.603 14.292
1 16.5874 28.4126 15.1108
1 17.3811 27.6189 15.1108
1 17.3842 28.3778 14.2993
1 16.6018 27.6189 14.3165
1 18.1748 28.4126 15.1108
1 18.9685 27.6189 15.1108
1 18.9761 28.376 14.2835
1 18.1689 27.6125 14.2965
1 19.7622 28.4126 15.1108
1 20.5559 27.6189 15.1108
1 20.5104 28.3822 14.3088
1 19.7396 27.5677 14.3042
1 21.3496 28.4126 15.1108
1 22.1433 27.6189 15.1108
1 22.1447 28.4029 14.3427
1 21.3398 27.637 14.3292
1 22.937 28.4126 15.1108
1 23.7307 27.6189 15.1108
1 23.7705 28.3971 14.3148
1 22.9497 27.6455 14.33
1 24.5244 28.4126 15.1108
1 25.3181 27.6189 15.1108
1 25.3223 28.3614 14.3385
1 24.53 27.5931 14.3024
1 26.1118 28.4126 15.1108
1 26.9055 27.6189 15.1108
1 26.8938 28.4113 14.3129
1 26.1045 27.5977 14.3289
1 27.6992 28.4126 15.1108
1 28.4929 27.6189 15.1108
1 28.4849 28.4214 14.3092
1 27.6938 27.6232 14.323
1 29.2866 28.4126 15.1108
1 0.08031 27.6189 15.1108
1 0.0638647 28.4072 14.2931
1 29.2857 27.6483 14.3357
1 0.874011 28.4126 15.1108
1 1.66771 27.6189 15.1108
1 1.65871 28.3951 14.3335
1 0.877866 27.5892 14.3206
1 2.46141 28.4126 15.1108
1 3.25511 27.6189 15.1108
1 3.28326 28.4086 14.3176
1 2.44887 27.6232 14.3366
1 4.04881 28.4126 15.1108
1 4.84251 27.6189 15.1108
1 4.844 28.39 14.3161
1 4.06637 27.5951 14.3161
1 5.63621 28.4126 15.1108
1 6.42991 27.6189 15.1108
1 6.41741 28.3876 14.3283
1 5.63837 27.6046 14.276
1 7.22361 28.4126 15.1108
1 8.01732 27.6189 15.1108
1 8.01615 28.4138 14.2989
1 7.2292 27.5759 14.3046
1 8.81102 28.4126 15.1108
1 9.60472 27.6189 15.1108
1 9.58375 28.3931 14.3343
1 8.80674 27.6216 14.3261
1 10.3984 28.4126 15.1108
1 11.1921 27.6189 15.1108
1 11.1743 28.3706 14.2822
1 10.3883 27.6265 14.325
1 11.9858 28.4126 15.1108
1 12.7795 27.6189 15.1108
1 12.7628 28.3931 14.3107
1 11.9524 27.615 14.3116
1 13.5732 28.4126 15.1108
1 14.3669 27.6189 15.1108
1 14.2941 28.3939 14.2755
1 13.5432 27.6344 14.3025
1 15 26.8252 15.1108
1 15.7937 26.0315 15.1108
1 15.797 26.8123 14.289
1 15.0681 26.0129 14.2736
1 16.5874 26.8252 15.1108
1 17.3811 26.0315 15.1108
1 17.3918 26.7999 14.316
1 16.5907 26.0369 14.3209
1 18.1748 26.8252 15.1108
1 18.9685 26.0315 15.1108
1 18.9775 26.8198 14.302
1 18.1656 26.0233 14.2967
1 19.7622 26.8252 15.1108
1 20.5559 26.0315 15.1108
1 20.5707 26.803 14.3289
1 19.7814 26.0055 14.3333
1 21.3496 26.8252 15.1108
1 22.1433 26.0315 15.1108
1 22.1444 26.8393 14.3186
1 21.3578 26.0284 14.3361
1 22.937 26.8252 15.1108
1 23.7307 26.0315 15.1108
1 23.7172 26.8396 14.3238
1 22.9281 26.0269 14.3129
1 24.5244 26.8252 15.1108
1 25.3181 26.0315 15.1108
1 25.321 26.8123 14.319
1 24.5503 26.0446 14.3118
1 26.1118 26.8252 15.1108
1 26.9055 26.0315 15.1108
1 26.9003 26.8333 14.3249
1 26.1239 26.0439 14.3001
1 27.6992 26.8252 15.1108
1 28.4929 26.0315 15.1108
1 28.4905 26.8285 14.3318
1 27.695 26.0233 14.3234
1 29.2866 26.8252 15.1108
1 0.08031 26.0315 15.1108
1 0.0760312 26.8028 14.304
1 29.2609 26.0528 14.3249
1 0.874011 26.8252 15.1108
1 1.66771 26.0315 15.1108
1 1.67362 26.8206 14.324
1 0.900791 26.0167 14.3225
1 2.46141 26.8252 15.1108
1 3.25511 26.0315 15.1108
1 3.25338 26.8375 14.3116
1 2.45671 26.0326 14.3244
1 4.04881 26.8252 15.1108
1 4.84251 26.0315 15.1108
1 4.84532 26.8077 14.3388
1 4.06894 26.0365 14.3318
1 5.63621 26.8252 15.1108
1 6.42991 26.0315 15.1108
1 6.41288 26.8138 14.2988
1 5.67489 26.024 14.324
1 7.22361 26.8252 15.1108
1 8.01732 26.0315 15.1108
1 8.03011 26.829 14.3149
1 7.23987 26.0543 14.3335
1 8.81102 26.8252 15.1108
1 9.60472 26.0315 15.1108
1 9.61773 26.8419 14.3369
1 8.81362 26.009 14.3299
1 10.3984 26.8252 15.1108
1 11.1921 26.0315 15.1108
1 11.1548 26.8261 14.3179
1 10.3667 26.0028 14.328
1 11.9858 26.8252 15.1108
1 12.7795 26.0315 15.1108
1 12.7587 26.8413 14.3126
1 11.9651 26.0189 14.3122
1 13.5732 26.8252 15.1108
1 14.3669 26.0315 15.1108
1 14.2803 26.8146 14.3212
1 13.5498 26.0234 14.3164
1 15 25.2378 15.1108
1 15.7937 24.4441 15.1108
1 15.806 25.2321 14.3129
1 15.0538 24.4395 14.2745
1 16.5874 25.2378 15.1108
1 17.3811 24.4441 15.1108
1 17.4083 25.2242 14.3134
1 16.6123 24.4239 14.3262
1 18.1748 25.2378 15.1108
1 18.9685 24.4441 15.1108
1 18.9953 25.2325 14.3404
1 18.1802 24.4277 14.3282
1 19.7622 25.2378 15.1108
1 20.5559 24.4441 15.1108
1 20.551 25.2313 14.3423
1 19.7741 24.4257 14.3407
1 21.3496 25.2378 15.1108
1 22.1433 24.4441 15.1108
1 22.1538 25.2154 14.3213
1 21.3565 24.4399 14.3223
1 22.937 25.2378 15.1108
1 23.7307 24.4441 15.1108
1 23.749 25.2522 14.2977
1 22.9564 24.4493 14.3121
1 24.5244 25.2378 15.1108
1 25.3181 24.4441 15.1108
1 25.3386 25.2634 14.322
1 24.5496 24.45 14.3183
1 26.1118 25.2378 15.1108
1 26.9055 24.4441 15.1108
1 26.9047 25.2188 14.3208
1 26.1186 24.4344 14.3326
1 27.6992 25.2378 15.1108
1 28.4929 24.4441 15.1108
1 28.4711 25.2293 14.3232
1 27.6909 24.425 14.3012
1 29.2866 25.2378 15.1108
1 0.08031 24.4441 15.1108
1 0.0754973 25.2463 14.3362
1 29.3008 24.4276 14.3371
1 0.874011 25.2378 15.1108
1 1.66771 24.4441 15.1108
1 1.66019 25.2388 14.327
1 0.881267 24.4418 14.2875
1 2.46141 25.2378 15.1108
1 3.25511 24.4441 15.1108
1 3.25093 25.2174 14.3204
1 2.45686 24.4244 14.3006
1 4.04881 25.2378 15.1108
1 4.84251 24.4441 15.1108
1 4.85273 25.2391 14.3524
1 4.03962 24.4283 14.3222
1 5.63621 25.2378 15.1108
1 6.42991 24.4441 15.1108
1 6.46958 25.2515 14.2991
1 5.65871 24.433 14.305
1 7.22361 25.2378 15.1108
1 8.01732 24.4441 15.1108
1 8.02666 25.2388 14.3143
1 7.23964 24.4307 14.3032
1 8.81102 25.2378 15.1108
1 9.60472 24.4441 15.1108
1 9.58473 25.1946 14.3385
1 8.80613 24.4323 14.3124
1 10.3984 25.2378 15.1108
1 11.1921 24.4441 15.1108
1 11.1719 25.238 14.3375
1 10.4107 24.4311 14.3345
1 11.9858 25.2378 15.1108
1 12.7795 24.4441 15.1108
1 12.7658 25.2308 14.3273
1 11.9582 24.4172 14.3091
1 13.5732 25.2378 15.1108
1 14.3669 24.4441 15.1108
1 14.2984 25.2329 14.2739
1 13.5571 24.4247 14.2958
1 15 23.6504 15.1108
1 15.7937 22.8567 15.1108
1 15.7898 23.6401 14.2999
1 15.0664 22.8598 14.2984
1 16.5874 23.6504 15.1108
1 17.3811 22.8567 15.1108
1 17.3922 23.618 14.322
1 16.6225 22.8392 14.3307
1 18.1748 23.6504 15.1108
1 18.9685 22.8567 15.1108
1 18.9847 23.6102 14.3115
1 18.173 22.8431 14.3127
1 19.7622 23.6504 15.1108
1 20.5559 22.8567 15.1108
1 20.5533 23.6459 14.3163
1 19.7723 22.8669 14.3199
1 21.3496 23.6504 15.1108
1 22.1433 22.8567 15.1108
1 22.1494 23.6593 14.3049
1 21.3594 22.859 14.3032
1 22.937 23.6504 15.1108
1 23.7307 22.8567 15.1108
1 23.7085 23.6702 14.3313
1 22.8998 22.8143 14.3404
1 24.5244 23.6504 15.1108
1 25.3181 22.8567 15.1108
1 25.3135 23.657 14.3047
1 24.5153 22.8677 14.3058
1 26.1118 23.6504 15.1108
1 26.9055 22.8567 15.1108
1 26.8968 23.6688 14.3162
1 26.0884 22.8652 14.3201
1 27.6992 23.6504 15.1108
1 28.4929 22.8567 15.1108
1 28.4877 23.6519 14.3255
1 27.6989 22.8501 14.3228
1 29.2866 23.6504 15.1108
1 0.08031 22.8567 15.1108
1 0.0776934 23.6148 14.3089
1 29.2884 22.8565 14.3145
1 0.874011 23.6504 15.1108
1 1.66771 22.8567 15.1108
1 1.66262 23.6478 14.331
1 0.881613 22.8622 14.3063
1 2.46141 23.6504 15.1108
1 3.25511 22.8567 15.1108
1 3.26353 23.6527 14.3267
1 2.47023 22.8435 14.3441
1 4.04881 23.6504 15.1108
1 4.84251 22.8567 15.1108
1 4.83333 23.6533 14.3194
1 4.02297 22.8539 14.3141
1 5.63621 23.6504 15.1108
1 6.42991 22.8567 15.1108
1 6.41478 23.6472 14.3085
1 5.63545 22.8502 14.307
1 7.22361 23.6504 15.1108
1 8.01732 22.8567 15.1108
1 8.01049 23.6435 14.3155
1 7.21629 22.8549 14.326
1 8.81102 23.6504 15.1108
1 9.60472 22.8567 15.1108
1 9.59264 23.6679 14.3059
1 8.7981 22.8534 14.3179
1 10.3984 23.6504 15.1108
1 11.1921 22.8567 15.1108
1 11.1725 23.6327 14.3148
1 10.4014 22.8325 14.3301
1 11.9858 23.6504 15.1108
1 12.7795 22.8567 15.1108
1 12.7604 23.6559 14.3108
1 11.981 22.8553 14.3113
1 13.5732 23.6504 15.1108
1 14.3669 22.8567 15.1108
1 14.279 23.6256 14.2838
1 13.534 22.8594 14.3053
1 15 22.063 15.1108
1 15.7937 21.2693 15.1108
1 15.816 22.0423 14.3343
1 15.0625 21.2622 14.3113
1 16.5874 22.063 15.1108
1 17.3811 21.2693 15.1108
1 17.3793 22.0571 14.298
1 16.5721 21.2734 14.3164
1 18.1748 22.063 15.1108
1 18.9685 21.2693 15.1108
1 18.9854 22.0573 14.323
1 18.186 21.2895 14.3447
1 19.7622 22.063 15.1108
1 20.5559 21.2693 15.1108
1 20.5826 22.0937 14.3345
1 19.796 21.2761 14.3393
1 21.3496 22.063 15.1108
1 22.1433 21.2693 15.1108
1 22.1117 22.0702 14.3163
1 21.3353 21.2645 14.3165
1 22.937 22.063 15.1108
1 23.7307 21.2693 15.1108
1 23.7466 22.0594 14.3162
1 22.9256 21.2699 14.346
1 24.5244 22.063 15.1108
1 25.3181 21.2693 15.1108
1 25.319 22.0838 14.3174
1 24.5308 21.2904 14.3097
1 26.1118 22.063 15.1108
1 26.9055 21.2693 15.1108
1 26.8949 22.0756 14.3317
1 26.1108 21.2759 14.3217
1 27.6992 22.063 15.1108
1 28.4929 21.2693 15.1108
1 28.4888 22.0645 14.3288
1 27.6921 21.2657 14.3203
1 29.2866 22.063 15.1108
1 0.08031 21.2693 15.1108
1 0.0870171 22.0716 14.3428
1 29.2961 21.2547 14.3201
1 0.874011 22.063 15.1108
1 1.66771 21.2693 15.1108
1 1.64628 22.0662 14.3266
1 0.882623 21.248 14.3122
1 2.46141 22.063 15.1108
1 3.25511 21.2693 15.1108
1 3.27438 22.0566 14.3429
1 2.4599 21.2789 14.3283
1 4.04881 22.063 15.1108
1 4.84251 21.2693 15.1108
1 4.85066 22.0552 14.3099
1 4.05497 21.2699 14.3187
1 5.63621 22.063 15.1108
1 6.42991 21.2693 15.1108
1 6.42629 22.0814 14.3084
1 5.62117 21.2574 14.3206
1 7.22361 22.063 15.1108
1 8.01732 21.2693 15.1108
1 8.01505 22.0564 14.337
1 7.21974 21.2611 14.3298
1 8.81102 22.063 15.1108
1 9.60472 21.2693 15.1108
1 9.59274 22.0587 14.3131
1 8.77569 21.2619 14.3105
1 10.3984 22.063 15.1108
1 11.1921 21.2693 15.1108
1 11.204 22.0663 14.3324
1 10.4031 21.2761 14.3414
1 11.9858 22.063 15.1108
1 12.7795 21.2693 15.1108
1 12.7709 22.075 14.3022
1 11.9838 21.2828 14.3135
1 13.5732 22.063 15.1108
1 14.3669 21.2693 15.1108
1 14.3081 22.0689 14.2706
1 13.5861 21.2721 14.3209
1 15 20.4756 15.1108
1 15.7937 19.6819 15.1108
1 15.8179 20.4701 14.3078
1 15.058 19.6872 14.2907
1 16.5874 20.4756 15.1108
1 17.3811 19.6819 15.1108
1 17.3884 20.4784 14.3244
1 16.6072 19.6784 14.2968
1 18.1748 20.4756 15.1108
1 18.9685 19.6819 15.1108
1 18.9742 20.4805 14.3023
1 18.1786 19.6828 14.3068
1 19.7622 20.4756 15.1108
1 20.5559 19.6819 15.1108
1 20.5469 20.4753 14.323
1 19.7399 19.6789 14.3082
1 21.3496 20.4756 15.1108
1 22.1433 19.6819 15.1108
1 22.1396 20.4644 14.3096
1 21.3318 19.6628 14.2935
1 22.937 20.4756 15.1108
1 23.7307 19.6819 15.1108
1 23.7257 20.4836 14.3358
1 22.9365 19.6689 14.3145
1 24.5244 20.4756 15.1108
1 25.3181 19.6819 15.1108
1 25.3133 20.5224 14.3122
1 24.5292 19.7108 14.3332
1 26.1118 20.4756 15.1108
1 26.9055 19.6819 15.1108
1 26.9042 20.4766 14.3182
1 26.0947 19.6981 14.3297
1 27.6992 20.4756 15.1108
1 28.4929 19.6819 15.1108
1 28.4967 20.492 14.329
1 27.7052 19.6745 14.3319
1 29.2866 20.4756 15.1108
1 0.08031 19.6819 15.1108
1 0.0620496 20.4472 14.3047
1 29.263 19.6904 14.3243
1 0.874011 20.4756 15.1108
1 1.66771 19.6819 15.1108
1 1.68181 20.4635 14.3164
1 0.882943 19.681 14.3384
1 2.46141 20.4756 15.1108
1 3.25511 19.6819 15.1108
1 3.24834 20.465 14.3384
1 2.47058 19.6798 14.307
1 4.04881 20.4756 15.1108
1 4.84251 19.6819 15.1108
1 4.83185 20.4868 14.3228
1 4.06337 19.6599 14.2876
1 5.63621 20.4756 15.1108
1 6.42991 19.6819 15.1108
1 6.43322 20.4909 14.3201
1 5.634 19.6788 14.3041
1 7.22361 20.4756 15.1108
1 8.01732 19.6819 15.1108
1 8.01989 20.4776 14.3245
1 7.21941 19.6724 14.3074
1 8.81102 20.4756 15.1108
1 9.60472 19.6819 15.1108
1 9.59629 20.4968 14.3289
1 8.83 19.6608 14.3156
1 10.3984 20.4756 15.1108
1 11.1921 19.6819 15.1108
1 11.1778 20.4982 14.3178
1 10.3986 19.6972 14.3257
1 11.9858 20.4756 15.1108
1 12.7795 19.6819 15.1108
1 12.7584 20.487 14.3223
1 11.9804 19.6867 14.3233
1 13.5732 20.4756 15.1108
1 14.3669 19.6819 15.1108
1 14.3011 20.4795 14.2726
1 13.5377 19.6995 14.3143
1 15 18.8882 15.1108
1 15.7937 18.0945 15.1108
1 15.8161 18.9078 14.2848
1 15.077 18.0738 14.2821
1 16.5874 18.8882 15.1108
1 17.3811 18.0945 15.1108
1 17.3992 18.8975 14.3235
1 16.5818 18.1044 14.3326
1 18.1748 18.8882 15.1108
1 18.9685 18.0945 15.1108
1 18.9632 18.8716 14.3131
1 18.1625 18.1027 14.3218
1 19.7622 18.8882 15.1108
1 20.5559 18.0945 15.1108
1 20.5612 18.8971 14.3368
1 19.7707 18.1245 14.293
1 21.3496 18.8882 15.1108
1 22.1433 18.0945 15.1108
1 22.1521 18.8632 14.313
1 21.3514 18.0947 14.3082
1 22.937 18.8882 15.1108
1 23.7307 18.0945 15.1108
1 23.7186 18.8817 14.3218
1 22.9333 18.0609 14.3299
1 24.5244 18.8882 15.1108
1 25.3181 18.0945 15.1108
1 25.3141 18.9111 14.308
1 24.5418 18.0736 14.3031
1 26.1118 18.8882 15.1108
1 26.9055 18.0945 15.1108
1 26.9001 18.9039 14.3247
1 26.1015 18.1068 14.3163
1 27.6992 18.8882 15.1108
1 28.4929 18.0945 15.1108
1 28.4982 18.8764 14.3183
1 27.6711 18.0872 14.3166
1 29.2866 18.8882 15.1108
1 0.08031 18.0945 15.1108
1 0.0771261 18.8878 14.3042
1 29.3042 18.0603 14.3429
1 0.874011 18.8882 15.1108
1 1.66771 18.0945 15.1108
1 1.68125 18.8728 14.3068
1 0.873352 18.0722 14.3085
1 2.46141 18.8882 15.1108
1 3.25511 18.0945 15.1108
1 3.28104 18.8702 14.2947
1 2.47638 18.0978 14.3081
1 4.04881 18.8882 15.1108
1 4.84251 18.0945 15.1108
1 4.84971 18.8955 14.3101
1 4.07693 18.0995 14.3144
1 5.63621 18.8882 15.1108
1 6.42991 18.0945 15.1108
1 6.42202 18.8974 14.312
1 5.62969 18.0876 14.3184
1 7.22361 18.8882 15.1108
1 8.01732 18.0945 15.1108
1 8.00395 18.906 14.3266
1 7.23293 18.0921 14.3263
1 8.81102 18.8882 15.1108
1 9.60472 18.0945 15.1108
1 9.60453 18.8607 14.319
1 8.79961 18.0942 14.3185
1 10.3984 18.8882 15.1108
1 11.1921 18.0945 15.1108
1 11.1829 18.9134 14.3064
1 10.4102 18.0773 14.3334
1 11.9858 18.8882 15.1108
1 12.7795 18.0945 15.1108
1 12.7702 18.8794 14.3353
1 11.9988 18.1348 14.3261
1 13.5732 18.8882 15.1108
1 14.3669 18.0945 15.1108
1 14.2963 18.8894 14.2814
1 13.5376 18.0848 14.3022
1 15 17.3008 15.1108
1 15.7937 16.5071 15.1108
1 15.8411 17.2935 14.2902
1 15.0888 16.5098 14.2844
1 16.5874 17.3008 15.1108
1 17.3811 16.5071 15.1108
1 17.3633 17.2908 14.3253
1 16.5896 16.4756 14.3059
1 18.1748 17.3008 15.1108
1 18.9685 16.5071 15.1108
1 18.9732 17.3265 14.3339
1 18.1843 16.5099 14.3319
1 19.7622 17.3008 15.1108
1 20.5559 16.5071 15.1108
1 20.5607 17.312 14.3282
1 19.7705 16.5135 14.307
1 21.3496 17.3008 15.1108
1 22.1433 16.5071 15.1108
1 22.1619 17.2813 14.3266
1 21.3727 16.5117 14.3162
1 22.937 17.3008 15.1108
1 23.7307 16.5071 15.1108
1 23.7399 17.302 14.317
1 22.9819 16.5156 14.3153
1 24.5244 17.3008 15.1108
1 25.3181 16.5071 15.1108
1 25.3424 17.2848 14.3274
1 24.5121 16.5048 14.3087
1 26.1118 17.3008 15.1108
1 26.9055 16.5071 15.1108
1 26.8977 17.3142 14.3187
1 26.1239 16.5011 14.2868
1 27.6992 17.3008 15.1108
1 28.4929 16.5071 15.1108
1 28.4886 17.2942 14.3292
1 27.6934 16.4943 14.3275
1 29.2866 17.3008 15.1108
1 0.08031 16.5071 15.1108
1 0.0778871 17.2832 14.3002
1 29.2852 16.4793 14.3074
1 0.874011 17.3008 15.1108
1 1.66771 16.5071 15.1108
1 1.66829 17.2891 14.3333
1 0.881092 16.5257 14.3243
1 2.46141 17.3008 15.1108
1 3.25511 16.5071 15.1108
1 3.28896 17.2885 14.3237
1 2.491 16.489 14.3446
1 4.04881 17.3008 15.1108
1 4.84251 16.5071 15.1108
1 4.84447 17.3174 14.3219
1 4.08516 16.4892 14.3227
1 5.63621 17.3008 15.1108
1 6.42991 16.5071 15.1108
1 6.41816 17.3223 14.3235
1 5.62821 16.5015 14.3194
1 7.22361 17.3008 15.1108
1 8.01732 16.5071 15.1108
1 8.00576 17.2978 14.2922
1 7.22497 16.513 14.3128
1 8.81102 17.3008 15.1108
1 9.60472 16.5071 15.1108
1 9.59479 17.3201 14.3072
1 8.80858 16.4795 14.2947
1 10.3984 17.3008 15.1108
1 11.1921 16.5071 15.1108
1 11.2284 17.3028 14.3141
1 10.3669 16.507 14.3074
1 11.9858 17.3008 15.1108
1 12.7795 16.5071 15.1108
1 12.7564 17.3348 14.3058
1 11.9828 16.4976 14.3258
1 13.5732 17.3008 15.1108
1 14.3669 16.5071 15.1108
1 14.3006 17.2807 14.296
1 13.5299 16.5513 14.2965
1 15 15.7134 15.1108
1 15.7937 14.9197 15.1108
1 15.8288 15.6921 14.2999
1 15.0503 14.9175 14.2794
1 16.5874 15.7134 15.1108
1 17.3811 14.9197 15.1108
1 17.4285 15.7045 14.3226
1 16.6191 14.9166 14.3187
1 18.1748 15.7134 15.1108
1 18.9685 14.9197 15.1108
1 18.98 15.7194 14.302
1 18.1526 14.901 14.3382
1 19.7622 15.7134 15.1108
1 20.5559 14.9197 15.1108
1 20.5775 15.7324 14.3254
1 19.7697 14.908 14.3157
1 21.3496 15.7134 15.1108
1 22.1433 14.9197 15.1108
1 22.1496 15.734 14.3015
1 21.3695 14.923 14.3163
1 22.937 15.7134 15.1108
1 23.7307 14.9197 15.1108
1 23.7227 15.7283 14.3358
1 22.9417 14.9171 14.2993
1 24.5244 15.7134 15.1108
1 25.3181 14.9197 15.1108
1 25.3016 15.6973 14.3018
1 24.5283 14.9248 14.3237
1 26.1118 15.7134 15.1108
1 26.9055 14.9197 15.1108
1 26.9192 15.6959 14.3359
1 26.1221 14.9311 14.3314
1 27.6992 15.7134 15.1108
1 28.4929 14.9197 15.1108
1 28.4954 15.6988 14.3374
1 27.7112 14.9191 14.3178
1 29.2866 15.7134 15.1108
1 0.08031 14.9197 15.1108
1 0.0778951 15.7155 14.3139
1 29.279 14.9152 14.3093
1 0.874011 15.7134 15.1108
1 1.66771 14.9197 15.1108
1 1.67654 15.7323 14.3254
1 0.858323 14.9202 14.3324
1 2.46141 15.7134 15.1108
1 3.25511 14.9197 15.1108
1 3.27747 15.7115 14.3321
1 2.46049 14.9362 14.3323
1 4.04881 15.7134 15.1108
1 4.84251 14.9197 15.1108
1 4.8481 15.7096 14.3143
1 4.07106 14.9171 14.3133
1 5.63621 15.7134 15.1108
1 6.42991 14.9197 15.1108
1 6.43378 15.7277 14.3134
1 5.66701 14.9091 14.3189
1 7.22361 15.7134 15.1108
1 8.01732 14.9197 15.1108
1 7.99882 15.7129 14.3027
1 7.20856 14.9308 14.3267
1 8.81102 15.7134 15.1108
1 9.60472 14.9197 15.1108
1 9.60064 15.7073 14.3
1 8.81629 14.9146 14.3101
1 10.3984 15.7134 15.1108
1 11.1921 14.9197 15.1108
1 11.194 15.7501 14.3178
1 10.3786 14.9091 14.3108
1 11.9858 15.7134 15.1108
1 12.7795 14.9197 15.1108
1 12.7674 15.7418 14.3153
1 11.9796 14.9455 14.3234
1 13.5732 15.7134 15.1108
1 14.3669 14.9197 15.1108
1 14.2906 15.7623 14.2817
1 13.5366 14.9318 14.2997
1 15 14.126 15.1108
1 15.7937 13.3323 15.1108
1 15.8153 14.1407 14.3141
1 15.053 13.3146 14.2808
1 16.5874 14.126 15.1108
1 17.3811 13.3323 15.1108
1 17.3811 14.1136 14.3433
1 16.5782 13.3255 14.352
1 18.1748 14.126 15.1108
1 18.9685 13.3323 15.1108
1 18.9446 14.1165 14.3344
1 18.1837 13.3157 14.3207
1 19.7622 14.126 15.1108
1 20.5559 13.3323 15.1108
1 20.5862 14.168 14.3232
1 19.771 13.3538 14.3173
1 21.3496 14.126 15.1108
1 22.1433 13.3323 15.1108
1 22.1491 14.1109 14.3375
1 21.3476 13.3227 14.3192
1 22.937 14.126 15.1108
1 23.7307 13.3323 15.1108
1 23.7188 14.1015 14.3199
1 22.9327 13.3367 14.3423
1 24.5244 14.126 15.1108
1 25.3181 13.3323 15.1108
1 25.3113 14.127 14.3416
1 24.5361 13.3353 14.3032
1 26.1118 14.126 15.1108
1 26.9055 13.3323 15.1108
1 26.901 14.1405 14.3184
1 26.1116 13.3257 14.3171
1 27.6992 14.126 15.1108
1 28.4929 13.3323 15.1108
1 28.4895 14.1309 14.3289
1 27.7055 13.3338 14.2843
1 29.2866 14.126 15.1108
1 0.08031 13.3323 15.1108
1 0.0743607 14.1365 14.312
1 29.2826 13.3316 14.2928
1 0.874011 14.126 15.1108
1 1.66771 13.3323 15.1108
1 1.64546 14.1219 14.2975
1 0.873802 13.3218 14.3436
1 2.46141 14.126 15.1108
1 3.25511 13.3323 15.1108
1 3.23979 14.1748 14.3093
1 2.47088 13.3512 14.3158
1 4.04881 14.126 15.1108
1 4.84251 13.3323 15.1108
1 4.85283 14.1077 14.3195
1 4.03158 13.3658 14.3235
1 5.63621 14.126 15.1108
1 6.42991 13.3323 15.1108
1 6.41589 14.0949 14.3156
1 5.63943 13.3405 14.3476
1 7.22361 14.126 15.1108
1 8.01732 13.3323 15.1108
1 7.98813 14.1247 14.3112
1 7.21123 13.3299 14.3049
1 8.81102 14.126 15.1108
1 9.60472 13.3323 15.1108
1 9.59607 14.1141 14.32
1 8.80515 13.3463 14.2962
1 10.3984 14.126 15.1108
1 11.1921 13.3323 15.1108
1 11.1892 14.152 14.3427
1 10.3886 13.3593 14.3124
1 11.9858 14.126 15.1108
1 12.7795 13.3323 15.1108
1 12.7496 14.1425 14.3303
1 11.9835 13.3353 14.2866
1 13.5732 14.126 15.1108
1 14.3669 13.3323 15.1108
1 14.2951 14.1376 14.2755
1 13.5365 13.3279 14.2776
1 15 12.5386 15.1108
1 15.7937 11.7449 15.1108
1 15.7972 12.5192 14.2929
1 15.054 11.763 14.2594
1 16.5874 12.5386 15.1108
1 17.3811 11.7449 15.1108
1 17.3986 12.5331 14.3028
1 16.6059 11.7219 14.2934
1 18.1748 12.5386 15.1108
1 18.9685 11.7449 15.1108
1 18.9865 12.5534 14.2956
1 18.1804 11.7498 14.334
1 19.7622 12.5386 15.1108
1 20.5559 11.7449 15.1108
1 20.5404 12.5525 14.2977
1 19.7589 11.759 14.3325
1 21.3496 12.5386 15.1108
1 22.1433 11.7449 15.1108
1 22.1159 12.5329 14.3326
1 21.3502 11.7358 14.318
1 22.937 12.5386 15.1108
1 23.7307 11.7449 15.1108
1 23.7387 12.5423 14.3251
1 22.9468 11.7631 14.3128
1 24.5244 12.5386 15.1108
1 25.3181 11.7449 15.1108
1 25.3107 12.5524 14.3183
1 24.5415 11.7395 14.3178
1 26.1118 12.5386 15.1108
1 26.9055 11.7449 15.1108
1 26.8821 12.5512 14.3446
1 26.0961 11.725 14.3091
1 27.6992 12.5386 15.1108
1 28.4929 11.7449 15.1108
1 28.4864 12.5248 14.3361
1 27.6573 11.7573 14.3168
1 29.2866 12.5386 15.1108
1 0.08031 11.7449 15.1108
1 0.0565457 12.5328 14.3343
1 29.2669 11.7291 14.3318
1 0.874011 12.5386 15.1108
1 1.66771 11.7449 15.1108
1 1.66445 12.5478 14.3344
1 0.858561 11.7356 14.3162
1 2.46141 12.5386 15.1108
1 3.25511 11.7449 15.1108
1 3.24271 12.5494 14.3397
1 2.46118 11.758 14.3094
1 4.04881 12.5386 15.1108
1 4.84251 11.7449 15.1108
1 4.83667 12.5353 14.3107
1 4.05811 11.7481 14.3536
1 5.63621 12.5386 15.1108
1 6.42991 11.7449 15.1108
1 6.3812 12.5366 14.3257
1 5.62799 11.7344 14.3157
1 7.22361 12.5386 15.1108
1 8.01732 11.7449 15.1108
1 7.9942 12.5132 14.302
1 7.23932 11.7422 14.3072
1 8.81102 12.5386 15.1108
1 9.60472 11.7449 15.1108
1 9.61369 12.5229 14.312
1 8.82827 11.742 14.3338
1 10.3984 12.5386 15.1108
1 11.1921 11.7449 15.1108
1 11.1756 12.5352 14.3116
1 10.3838 11.7504 14.3017
1 11.9858 12.5386 15.1108
1 12.7795 11.7449 15.1108
1 12.7704 12.5204 14.296
1 11.9471 11.7484 14.3288
1 13.5732 12.5386 15.1108
1 14.3669 11.7449 15.1108
1 14.3009 12.5171 14.2865
1 13.5315 11.7443 14.3247
1 15 10.9512 15.1108
1 15.7937 10.1575 15.1108
1 15.8038 10.9411 14.3196
1 15.054 10.1508 14.2616
1 16.5874 10.9512 15.1108
1 17.3811 10.1575 15.1108
1 17.3888 10.916 14.3235
1 16.588 10.1115 14.3139
1 18.1748 10.9512 15.1108
1 18.9685 10.1575 15.1108
1 18.9664 10.9551 14.3139
1 18.1819 10.1478 14.3254
1 19.7622 10.9512 15.1108
1 20.5559 10.1575 15.1108
1 20.5512 10.953 14.3302
1 19.763 10.1677 14.3291
1 21.3496 10.9512 15.1108
1 22.1433 10.1575 15.1108
1 22.1599 10.9314 14.3154
1 21.3494 10.1679 14.323
1 22.937 10.9512 15.1108
1 23.7307 10.1575 15.1108
1 23.721 10.9539 14.3098
1 22.9262 10.123 14.3162
1 24.5244 10.9512 15.1108
1 25.3181 10.1575 15.1108
1 25.3056 10.9632 14.3324
1 24.5063 10.1461 14.321
1 26.1118 10.9512 15.1108
1 26.9055 10.1575 15.1108
1 26.8804 10.9565 14.3245
1 26.1026 10.14 14.3185
1 27.6992 10.9512 15.1108
1 28.4929 10.1575 15.1108
1 28.4908 10.9544 14.3031
1 27.6793 10.1744 14.2951
1 29.2866 10.9512 15.1108
1 0.08031 10.1575 15.1108
1 0.0512393 10.9513 14.333
1 29.2806 10.1586 14.2952
1 0.874011 10.9512 15.1108
1 1.66771 10.1575 15.1108
1 1.67993 10.9405 14.3307
1 0.859534 10.1311 14.3055
1 2.46141 10.9512 15.1108
1 3.25511 10.1575 15.1108
1 3.26098 10.9481 14.3288
1 2.44377 10.158 14.3188
1 4.04881 10.9512 15.1108
1 4.84251 10.1575 15.1108
1 4.84046 10.9576 14.3376
1 4.048 10.1608 14.3169
1 5.63621 10.9512 15.1108
1 6.42991 10.1575 15.1108
1 6.46464 10.9381 14.3283
1 5.62664 10.1676 14.3336
1 7.22361 10.9512 15.1108
1 8.01732 10.1575 15.1108
1 8.00974 10.9291 14.3017
1 7.22461 10.1652 14.3166
1 8.81102 10.9512 15.1108
1 9.60472 10.1575 15.1108
1 9.5866 10.9674 14.3176
1 8.81349 10.1526 14.2896
1 10.3984 10.9512 15.1108
1 11.1921 10.1575 15.1108
1 11.1599 10.9608 14.3229
1 10.3947 10.1478 14.2963
1 11.9858 10.9512 15.1108
1 12.7795 10.1575 15.1108
1 12.7392 10.9149 14.3067
1 11.9988 10.1574 14.3099
1 13.5732 10.9512 15.1108
1 14.3669 10.1575 15.1108
1 14.297 10.9656 14.277
1 13.5688 10.1548 14.3243
1 15 9.36379 15.1108
1 15.7937 8.57009 15.1108
1 15.8103 9.34723 14.2924
1 15.0717 8.58866 14.3096
1 16.5874 9.36379 15.1108
1 17.3811 8.57009 15.1108
1 17.41 9.36832 14.3118
1 16.6318 8.55636 14.2793
1 18.1748 9.36379 15.1108
1 18.9685 8.57009 15.1108
1 18.9777 9.33277 14.3374
1 18.2118 8.5661 14.3273
1 19.7622 9.36379 15.1108
1 20.5559 8.57009 15.1108
1 20.5684 9.34824 14.319
1 19.7858 8.57725 14.3173
1 21.3496 9.36379 15.1108
1 22.1433 8.57009 15.1108
1 22.153 9.36289 14.3276
1 21.3654 8.578 14.3228
1 22.937 9.36379 15.1108
1 23.7307 8.57009 15.1108
1 23.7188 9.35479 14.3242
1 22.9382 8.53888 14.3149
1 24.5244 9.36379 15.1108
1 25.3181 8.57009 15.1108
1 25.3 9.34403 14.2977
1 24.5027 8.57557 14.33
1 26.1118 9.36379 15.1108
1 26.9055 8.57009 15.1108
1 26.9118 9.37813 14.3172
1 26.1264 8.56154 14.3188
1 27.6992 9.36379 15.1108
1 28.4929 8.57009 15.1108
1 28.5023 9.36782 14.3404
1 27.6808 8.56899 14.324
1 29.2866 9.36379 15.1108
1 0.08031 8.57009 15.1108
1 0.073388 9.35028 14.292
1 29.3049 8.55946 14.3086
1 0.874011 9.36379 15.1108
1 1.66771 8.57009 15.1108
1 1.66426 9.36279 14.2976
1 0.866214 8.57102 14.3091
1 2.46141 9.36379 15.1108
1 3.25511 8.57009 15.1108
1 3.24749 9.35355 14.3132
1 2.465 8.56678 14.3216
1 4.04881 9.36379 15.1108
1 4.84251 8.57009 15.1108
1 4.83305 9.35806 14.322
1 4.04335 8.59472 14.2965
1 5.63621 9.36379 15.1108
1 6.42991 8.57009 15.1108
1 6.42613 9.34646 14.3036
1 5.62631 8.54924 14.3015
1 7.22361 9.36379 15.1108
1 8.01732 8.57009 15.1108
1 8.00296 9.38075 14.3127
1 7.22646 8.54713 14.3117
1 8.81102 9.36379 15.1108
1 9.60472 8.57009 15.1108
1 9.60152 9.38584 14.3193
1 8.79081 8.57307 14.3431
1 10.3984 9.36379 15.1108
1 11.1921 8.57009 15.1108
1 11.2199 9.37212 14.305
1 10.3858 8.58084 14.3023
1 11.9858 9.36379 15.1108
1 12.7795 8.57009 15.1108
1 12.7702 9.36623 14.3079
1 11.9807 8.55195 14.319
1 13.5732 9.36379 15.1108
1 14.3669 8.57009 15.1108
1 14.3242 9.36362 14.2987
1 13.5575 8.55169 14.319
1 15 7.77639 15.1108
1 15.7937 6.98268 15.1108
1 15.7934 7.78211 14.3015
1 15.059 6.98131 14.2931
1 16.5874 7.77639 15.1108
1 17.3811 6.98268 15.1108
1 17.3954 7.77503 14.3236
1 16.6199 6.9743 14.3025
1 18.1748 7.77639 15.1108
1 18.9685 6.98268 15.1108
1 18.9741 7.75501 14.3201
1 18.1713 6.97554 14.331
1 19.7622 7.77639 15.1108
1 20.5559 6.98268 15.1108
1 20.5981 7.7609 14.3041
1 19.7613 7.02495 14.3452
1 21.3496 7.77639 15.1108
1 22.1433 6.98268 15.1108
1 22.134 7.79638 14.3139
1 21.3557 7.02306 14.3061
1 22.937 7.77639 15.1108
1 23.7307 6.98268 15.1108
1 23.724 7.74938 14.3026
1 22.9332 6.97259 14.3007
1 24.5244 7.77639 15.1108
1 25.3181 6.98268 15.1108
1 25.3139 7.76326 14.2933
1 24.5639 6.99047 14.3043
1 26.1118 7.77639 15.1108
1 26.9055 6.98268 15.1108
1 26.9318 7.80167 14.3086
1 26.1305 6.98366 14.3046
1 27.6992 7.77639 15.1108
1 28.4929 6.98268 15.1108
1 28.4999 7.80563 14.3385
1 27.7041 6.99492 14.3231
1 29.2866 7.77639 15.1108
1 0.08031 6.98268 15.1108
1 0.0992424 7.79435 14.3339
1 29.2835 6.98261 14.3471
1 0.874011 7.77639 15.1108
1 1.66771 6.98268 15.1108
1 1.67801 7.7617 14.322
1 0.87484 6.95641 14.3051
1 2.46141 7.77639 15.1108
1 3.25511 6.98268 15.1108
1 3.23809 7.81201 14.314
1 2.46937 6.97175 14.3173
1 4.04881 7.77639 15.1108
1 4.84251 6.98268 15.1108
1 4.80866 7.77592 14.2986
1 4.04625 6.97833 14.2846
1 5.63621 7.77639 15.1108
1 6.42991 6.98268 15.1108
1 6.41886 7.76841 14.2985
1 5.63081 6.98505 14.3137
1 7.22361 7.77639 15.1108
1 8.01732 6.98268 15.1108
1 8.00189 7.78112 14.3221
1 7.22455 6.98724 14.3247
1 8.81102 7.77639 15.1108
1 9.60472 6.98268 15.1108
1 9.5947 7.79383 14.3043
1 8.78754 6.95818 14.3123
1 10.3984 7.77639 15.1108
1 11.1921 6.98268 15.1108
1 11.1831 7.76654 14.3424
1 10.3483 7.00749 14.3179
1 11.9858 7.77639 15.1108
1 12.7795 6.98268 15.1108
1 12.7762 7.79666 14.2917
1 11.9751 7.00708 14.2848
1 13.5732 7.77639 15.1108
1 14.3669 6.98268 15.1108
1 14.3108 7.76647 14.2952
1 13.551 7.00919 14.3194
1 15 6.18898 15.1108
1 15.7937 5.39528 15.1108
1 15.8233 6.18817 14.284
1 15.0523 5.39643 14.2894
1 16.5874 6.18898 15.1108
1 17.3811 5.39528 15.1108
1 17.3861 6.18247 14.3237
1 16.602 5.41937 14.3003
1 18.1748 6.18898 15.1108
1 18.9685 5.39528 15.1108
1 18.9828 6.18474 14.3035
1 18.1792 5.40025 14.3442
1 19.7622 6.18898 15.1108
1 20.5559 5.39528 15.1108
1 20.5654 6.22001 14.3259
1 19.7905 5.39082 14.3181
1 21.3496 6.18898 15.1108
1 22.1433 5.39528 15.1108
1 22.1621 6.17443 14.3141
1 21.3413 5.4324 14.3285