9376
Atoms. Timestep: 4000000
1 15 3.55271e-15 10.7044
1 15.7937 29.2063 10.7044
1 15.839 29.9377 9.87892
1 15.0803 29.1746 9.86638
1 16.5874 3.55271e-15 10.7044
1 17.3811 29.2063 10.7044
1 17.3888 29.9115 9.88545
1 16.6099 29.1406 9.86321
1 18.1748 3.55271e-15 10.7044
1 18.9685 29.2063 10.7044
1 18.9594 29.9232 9.8874
1 18.1874 29.1658 9.8954
1 19.7622 3.55271e-15 10.7044
1 20.5559 29.2063 10.7044
1 20.5558 29.9281 9.88071
1 19.7527 29.1806 9.89031
1 21.3496 3.55271e-15 10.7044
1 22.1433 29.2063 10.7044
1 22.1382 29.9344 9.88603
1 21.3586 29.1845 9.91164
1 22.937 3.55271e-15 10.7044
1 23.7307 29.2063 10.7044
1 23.723 29.9202 9.89623
1 22.9554 29.1839 9.89863
1 24.5244 3.55271e-15 10.7044
1 25.3181 29.2063 10.7044
1 25.3149 29.9183 9.87625
1 24.5427 29.1742 9.89873
1 26.1118 3.55271e-15 10.7044
1 26.9055 29.2063 10.7044
1 26.9143 29.942 9.85985
1 26.1121 29.1589 9.89685
1 27.6992 3.55271e-15 10.7044
1 28.4929 29.2063 10.7044
1 28.4984 29.9116 9.87024
1 27.7166 29.1743 9.90331
1 29.2866 3.55271e-15 10.7044
1 0.08031 29.2063 10.7044
1 0.0972394 29.9403 9.88187
1 29.2932 29.1965 9.87947
1 0.874011 3.55271e-15 10.7044
1 1.66771 29.2063 10.7044
1 1.6577 29.9347 9.87533
1 0.905306 29.1874 9.88832
1 2.46141 3.55271e-15 10.7044
1 3.25511 29.2063 10.7044
1 3.25136 29.9245 9.85734
1 2.46588 29.1675 9.94555
1 4.04881 3.55271e-15 10.7044
1 4.84251 29.2063 10.7044
1 4.86032 29.9105 9.84258
1 4.01675 29.2007 9.8988
1 5.63621 3.55271e-15 10.7044
1 6.42991 29.2063 10.7044
1 6.43649 29.9275 9.88497
1 5.65707 29.1939 9.90935
1 7.22361 3.55271e-15 10.7044
1 8.01732 29.2063 10.7044
1 8.02455 29.9244 9.88408
1 7.23238 29.1581 9.8821
1 8.81102 3.55271e-15 10.7044
1 9.60472 29.2063 10.7044
1 9.58098 29.9405 9.87049
1 8.7905 29.1585 9.92181
1 10.3984 3.55271e-15 10.7044
1 11.1921 29.2063 10.7044
1 11.1563 29.933 9.85816
1 10.3688 29.1894 9.92775
1 11.9858 3.55271e-15 10.7044
1 12.7795 29.2063 10.7044
1 12.7523 29.9368 9.88982
1 11.9511 29.1878 9.9127
1 13.5732 3.55271e-15 10.7044
1 14.3669 29.2063 10.7044
1 14.2931 29.9508 9.84954
1 13.5598 29.1916 9.8957
1 15 28.4126 10.7044
1 15.7937 27.6189 10.7044
1 15.8247 28.4038 9.88681
1 15.0776 27.6164 9.87515
1 16.5874 28.4126 10.7044
1 17.3811 27.6189 10.7044
1 17.385 28.4008 9.90837
1 16.6141 27.6175 9.91009
1 18.1748 28.4126 10.7044
1 18.9685 27.6189 10.7044
1 18.9661 28.3851 9.91024
1 18.1854 27.5992 9.90424
1 19.7622 28.4126 10.7044
1 20.5559 27.6189 10.7044
1 20.56 28.4023 9.90945
1 19.7596 27.5789 9.92665
1 21.3496 28.4126 10.7044
1 22.1433 27.6189 10.7044
1 22.1435 28.3839 9.9113
1 21.34 27.5897 9.93715
1 22.937 28.4126 10.7044
1 23.7307 27.6189 10.7044
1 23.7416 28.3695 9.8982
1 22.9251 27.6055 9.9023
1 24.5244 28.4126 10.7044
1 25.3181 27.6189 10.7044
1 25.3087 28.4115 9.90826
1 24.5274 27.6113 9.92091
1 26.1118 28.4126 10.7044
1 26.9055 27.6189 10.7044
1 26.8882 28.3884 9.94132
1 26.1067 27.647 9.91631
1 27.6992 28.4126 10.7044
1 28.4929 27.6189 10.7044
1 28.5169 28.4218 9.89006
1 27.6928 27.6261 9.89508
1 29.2866 28.4126 10.7044
1 0.08031 27.6189 10.7044
1 0.103183 28.3857 9.91099
1 29.2513 27.5952 9.88705
1 0.874011 28.4126 10.7044
1 1.66771 27.6189 10.7044
1 1.66451 28.3959 9.93144
1 0.887784 27.6027 9.9031
1 2.46141 28.4126 10.7044
1 3.25511 27.6189 10.7044
1 3.25983 28.3885 9.91495
1 2.44535 27.6291 9.92569
1 4.04881 28.4126 10.7044
1 4.84251 27.6189 10.7044
1 4.84209 28.3854 9.88523
1 4.06734 27.6134 9.90863
1 5.63621 28.4126 10.7044
1 6.42991 27.6189 10.7044
1 6.44187 28.3883 9.91758
1 5.63213 27.5886 9.92075
1 7.22361 28.4126 10.7044
1 8.01732 27.6189 10.7044
1 8.02567 28.3987 9.90192
1 7.22026 27.6244 9.91273
1 8.81102 28.4126 10.7044
1 9.60472 27.6189 10.7044
1 9.59539 28.3936 9.90357
1 8.79382 27.6185 9.92379
1 10.3984 28.4126 10.7044
1 11.1921 27.6189 10.7044
1 11.1705 28.3861 9.9182
1 10.3874 27.6228 9.90069
1 11.9858 28.4126 10.7044
1 12.7795 27.6189 10.7044
1 12.7781 28.4115 9.9009
1 11.9925 27.5883 9.94032
1 13.5732 28.4126 10.7044
1 14.3669 27.6189 10.7044
1 14.3061 28.3982 9.86447
1 13.5519 27.6003 9.89122
1 15 26.8252 10.7044
1 15.7937 26.0315 10.7044
1 15.83 26.8361 9.89754
1 15.072 26.0407 9.88453
1 16.5874 26.8252 10.7044
1 17.3811 26.0315 10.7044
1 17.4158 26.8283 9.9177
1 16.6319 26.0307 9.90405
1 18.1748 26.8252 10.7044
1 18.9685 26.0315 10.7044
1 18.986 26.7971 9.93627
1 18.1958 25.9924 9.9274
1 19.7622 26.8252 10.7044
1 20.5559 26.0315 10.7044
1 20.5526 26.8095 9.9331
1 19.7449 26.0219 9.91749
1 21.3496 26.8252 10.7044
1 22.1433 26.0315 10.7044
1 22.1419 26.8154 9.91011
1 21.3593 26.0256 9.91298
1 22.937 26.8252 10.7044
1 23.7307 26.0315 10.7044
1 23.7323 26.806 9.9351
1 22.9591 26.0173 9.90406
1 24.5244 26.8252 10.7044
1 25.3181 26.0315 10.7044
1 25.3071 26.8088 9.93121
1 24.5303 26.0242 9.9218
1 26.1118 26.8252 10.7044
1 26.9055 26.0315 10.7044
1 26.8983 26.8131 9.92426
1 26.1208 26.0349 9.9679
1 27.6992 26.8252 10.7044
1 28.4929 26.0315 10.7044
1 28.4875 26.802 9.92277
1 27.705 26.0386 9.90239
1 29.2866 26.8252 10.7044
1 0.08031 26.0315 10.7044
1 0.0846957 26.8082 9.89469
1 29.2597 26.0334 9.92769
1 0.874011 26.8252 10.7044
1 1.66771 26.0315 10.7044
1 1.6651 26.8499 9.89278
1 0.856296 26.0251 9.91986
1 2.46141 26.8252 10.7044
1 3.25511 26.0315 10.7044
1 3.22867 26.8473 9.93002
1 2.43606 26.0597 9.91809
1 4.04881 26.8252 10.7044
1 4.84251 26.0315 10.7044
1 4.85028 26.816 9.93107
1 4.0438 26.0325 9.91831
1 5.63621 26.8252 10.7044
1 6.42991 26.0315 10.7044
1 6.46856 26.8282 9.88854
1 5.63913 26.0118 9.88935
1 7.22361 26.8252 10.7044
1 8.01732 26.0315 10.7044
1 8.02147 26.847 9.92116
1 7.20162 26.0375 9.89489
1 8.81102 26.8252 10.7044
1 9.60472 26.0315 10.7044
1 9.62379 26.8292 9.89186
1 8.79205 26.0447 9.9101
1 10.3984 26.8252 10.7044
1 11.1921 26.0315 10.7044
1 11.1812 26.8122 9.89794
1 10.3911 26.0138 9.92332
1 11.9858 26.8252 10.7044
1 12.7795 26.0315 10.7044
1 12.7772 26.8178 9.9188
1 11.9887 26.0248 9.89755
1 13.5732 26.8252 10.7044
1 14.3669 26.0315 10.7044
1 14.2905 26.8299 9.88635
1 13.5539 26.0085 9.93068
1 15 25.2378 10.7044
1 15.7937 24.4441 10.7044
1 15.8213 25.2456 9.92421
1 15.0404 24.4393 9.88429
1 16.5874 25.2378 10.7044
1 17.3811 24.4441 10.7044
1 17.3722 25.2429 9.92558
1 16.5876 24.4389 9.9171
1 18.1748 25.2378 10.7044
1 18.9685 24.4441 10.7044
1 18.9881 25.2445 9.90584
1 18.1727 24.4517 9.91818
1 19.7622 25.2378 10.7044
1 20.5559 24.4441 10.7044
1 20.5377 25.2299 9.89847
1 19.7519 24.4186 9.89695
1 21.3496 25.2378 10.7044
1 22.1433 24.4441 10.7044
1 22.1111 25.2285 9.8934
1 21.3509 24.4467 9.9013
1 22.937 25.2378 10.7044
1 23.7307 24.4441 10.7044
1 23.7226 25.211 9.88816
1 22.936 24.4168 9.90427
1 24.5244 25.2378 10.7044
1 25.3181 24.4441 10.7044
1 25.3202 25.2509 9.90626
1 24.5264 24.4399 9.90815
1 26.1118 25.2378 10.7044
1 26.9055 24.4441 10.7044
1 26.8887 25.2623 9.9137
1 26.1155 24.4699 9.87846
1 27.6992 25.2378 10.7044
1 28.4929 24.4441 10.7044
1 28.4797 25.2388 9.91489
1 27.6797 24.4325 9.91854
1 29.2866 25.2378 10.7044
1 0.08031 24.4441 10.7044
1 0.0610875 25.2299 9.91191
1 29.2644 24.438 9.89638
1 0.874011 25.2378 10.7044
1 1.66771 24.4441 10.7044
1 1.65068 25.2476 9.90022
1 0.854845 24.4127 9.91656
1 2.46141 25.2378 10.7044
1 3.25511 24.4441 10.7044
1 3.24462 25.2427 9.89513
1 2.46732 24.4398 9.91143
1 4.04881 25.2378 10.7044
1 4.84251 24.4441 10.7044
1 4.84456 25.2588 9.91051
1 4.04663 24.4509 9.91726
1 5.63621 25.2378 10.7044
1 6.42991 24.4441 10.7044
1 6.42203 25.2427 9.91344
1 5.62424 24.4521 9.92546
1 7.22361 25.2378 10.7044
1 8.01732 24.4441 10.7044
1 8.01805 25.2469 9.92853
1 7.22975 24.4379 9.92958
1 8.81102 25.2378 10.7044
1 9.60472 24.4441 10.7044
1 9.60142 25.2424 9.89588
1 8.81038 24.4369 9.92328
1 10.3984 25.2378 10.7044
1 11.1921 24.4441 10.7044
1 11.2155 25.2283 9.91323
1 10.3958 24.4484 9.9195
1 11.9858 25.2378 10.7044
1 12.7795 24.4441 10.7044
1 12.7671 25.2112 9.91959
1 11.9764 24.4344 9.92404
1 13.5732 25.2378 10.7044
1 14.3669 24.4441 10.7044
1 14.3076 25.2445 9.88974
1 13.5908 24.4139 9.90053
1 15 23.6504 10.7044
1 15.7937 22.8567 10.7044
1 15.8018 23.6617 9.94296
1 15.0636 22.8436 9.8669
1 16.5874 23.6504 10.7044
1 17.3811 22.8567 10.7044
1 17.3819 23.647 9.91122
1 16.6146 22.8501 9.92627
1 18.1748 23.6504 10.7044
1 18.9685 22.8567 10.7044
1 18.9492 23.6397 9.89984
1 18.1639 22.8663 9.89123
1 19.7622 23.6504 10.7044
1 20.5559 22.8567 10.7044
1 20.5536 23.6472 9.8897
1 19.7682 22.8455 9.91778
1 21.3496 23.6504 10.7044
1 22.1433 22.8567 10.7044
1 22.1564 23.6393 9.91632
1 21.3374 22.858 9.91249
1 22.937 23.6504 10.7044
1 23.7307 22.8567 10.7044
1 23.7493 23.6519 9.89832
1 22.933 22.839 9.90328
1 24.5244 23.6504 10.7044
1 25.3181 22.8567 10.7044
1 25.3249 23.6546 9.91004
1 24.5386 22.8539 9.91176
1 26.1118 23.6504 10.7044
1 26.9055 22.8567 10.7044
1 26.8964 23.6453 9.90158
1 26.0996 22.8512 9.91813
1 27.6992 23.6504 10.7044
1 28.4929 22.8567 10.7044
1 28.4829 23.6586 9.8988
1 27.7009 22.8499 9.92185
1 29.2866 23.6504 10.7044
1 0.08031 22.8567 10.7044
1 0.0650229 23.6456 9.93472
1 29.2868 22.8586 9.94487
1 0.874011 23.6504 10.7044
1 1.66771 22.8567 10.7044
1 1.67698 23.6511 9.90503
1 0.887241 22.8846 9.92667
1 2.46141 23.6504 10.7044
1 3.25511 22.8567 10.7044
1 3.25836 23.632 9.90895
1 2.4635 22.8621 9.92352
1 4.04881 23.6504 10.7044
1 4.84251 22.8567 10.7044
1 4.8239 23.6678 9.91627
1 4.06308 22.8445 9.88158
1 5.63621 23.6504 10.7044
1 6.42991 22.8567 10.7044
1 6.40678 23.6757 9.92776
1 5.65179 22.8525 9.90589
1 7.22361 23.6504 10.7044
1 8.01732 22.8567 10.7044
1 7.9869 23.649 9.9115
1 7.25395 22.8573 9.90712
1 8.81102 23.6504 10.7044
1 9.60472 22.8567 10.7044
1 9.60939 23.643 9.91928
1 8.81137 22.8734 9.90798
1 10.3984 23.6504 10.7044
1 11.1921 22.8567 10.7044
1 11.1885 23.6344 9.90865
1 10.3954 22.8552 9.89827
1 11.9858 23.6504 10.7044
1 12.7795 22.8567 10.7044
1 12.754 23.6764 9.90972
1 11.9831 22.8645 9.93452
1 13.5732 23.6504 10.7044
1 14.3669 22.8567 10.7044
1 14.3195 23.6279 9.86058
1 13.5502 22.8609 9.89871
1 15 22.063 10.7044
1 15.7937 21.2693 10.7044
1 15.8371 22.042 9.88669
1 15.0491 21.2755 9.87511
1 16.5874 22.063 10.7044
1 17.3811 21.2693 10.7044
1 17.3942 22.0674 9.92041
1 16.6384 21.2669 9.92824
1 18.1748 22.063 10.7044
1 18.9685 21.2693 10.7044
1 18.964 22.0722 9.92804
1 18.2051 21.2604 9.90329
1 19.7622 22.063 10.7044
1 20.5559 21.2693 10.7044
1 20.5674 22.058 9.91481
1 19.7408 21.2617 9.91308
1 21.3496 22.063 10.7044
1 22.1433 21.2693 10.7044
1 22.1371 22.059 9.88722
1 21.3479 21.2367 9.90915
1 22.937 22.063 10.7044
1 23.7307 21.2693 10.7044
1 23.7537 22.0681 9.93038
1 22.9735 21.2857 9.91427
1 24.5244 22.063 10.7044
1 25.3181 21.2693 10.7044
1 25.318 22.058 9.9296
1 24.541 21.3006 9.90379
1 26.1118 22.063 10.7044
1 26.9055 21.2693 10.7044
1 26.9191 22.0494 9.90606
1 26.1022 21.2514 9.90025
1 27.6992 22.063 10.7044
1 28.4929 21.2693 10.7044
1 28.49 22.0496 9.90549
1 27.6949 21.2477 9.9203
1 29.2866 22.063 10.7044
1 0.08031 21.2693 10.7044
1 0.0862616 22.061 9.89786
1 29.2976 21.2714 9.9325
1 0.874011 22.063 10.7044
1 1.66771 21.2693 10.7044
1 1.67472 22.0533 9.91063
1 0.865508 21.2853 9.90489
1 2.46141 22.063 10.7044
1 3.25511 21.2693 10.7044
1 3.24535 22.0806 9.92187
1 2.46715 21.2829 9.88952
1 4.04881 22.063 10.7044
1 4.84251 21.2693 10.7044
1 4.85621 22.072 9.92334
1 4.04868 21.2515 9.89415
1 5.63621 22.063 10.7044
1 6.42991 21.2693 10.7044
1 6.41395 22.0729 9.91506
1 5.65226 21.2632 9.92587
1 7.22361 22.063 10.7044
1 8.01732 21.2693 10.7044
1 8.03745 22.0578 9.93856
1 7.20497 21.2611 9.92743
1 8.81102 22.063 10.7044
1 9.60472 21.2693 10.7044
1 9.62042 22.0611 9.90926
1 8.82582 21.2527 9.8924
1 10.3984 22.063 10.7044
1 11.1921 21.2693 10.7044
1 11.1872 22.0499 9.91892
1 10.4043 21.2583 9.92898
1 11.9858 22.063 10.7044
1 12.7795 21.2693 10.7044
1 12.7723 22.0806 9.92719
1 11.9832 21.2414 9.9245
1 13.5732 22.063 10.7044
1 14.3669 21.2693 10.7044
1 14.3115 22.0708 9.85845
1 13.5531 21.2854 9.92991
1 15 20.4756 10.7044
1 15.7937 19.6819 10.7044
1 15.8327 20.4918 9.89457
1 15.0498 19.6993 9.8812
1 16.5874 20.4756 10.7044
1 17.3811 19.6819 10.7044
1 17.4075 20.4699 9.90631
1 16.6076 19.6638 9.9315
1 18.1748 20.4756 10.7044
1 18.9685 19.6819 10.7044
1 18.9672 20.4533 9.91364
1 18.1904 19.6808 9.9038
1 19.7622 20.4756 10.7044
1 20.5559 19.6819 10.7044
1 20.5518 20.4847 9.93497
1 19.7746 19.675 9.90637
1 21.3496 20.4756 10.7044
1 22.1433 19.6819 10.7044
1 22.1631 20.4621 9.93161
1 21.3307 19.695 9.89533
1 22.937 20.4756 10.7044
1 23.7307 19.6819 10.7044
1 23.7199 20.4623 9.8976
1 22.9502 19.6951 9.88812
1 24.5244 20.4756 10.7044
1 25.3181 19.6819 10.7044
1 25.3177 20.4925 9.92668
1 24.5135 19.6952 9.90179
1 26.1118 20.4756 10.7044
1 26.9055 19.6819 10.7044
1 26.8827 20.4623 9.91651
1 26.1021 19.6542 9.92984
1 27.6992 20.4756 10.7044
1 28.4929 19.6819 10.7044
1 28.4941 20.4812 9.90361
1 27.6787 19.6957 9.90363
1 29.2866 20.4756 10.7044
1 0.08031 19.6819 10.7044
1 0.0602341 20.4826 9.92202
1 29.2954 19.669 9.90803
1 0.874011 20.4756 10.7044
1 1.66771 19.6819 10.7044
1 1.66252 20.4843 9.91316
1 0.873949 19.7012 9.92413
1 2.46141 20.4756 10.7044
1 3.25511 19.6819 10.7044
1 3.26228 20.455 9.89363
1 2.44815 19.6692 9.91463
1 4.04881 20.4756 10.7044
1 4.84251 19.6819 10.7044
1 4.84957 20.4576 9.91798
1 4.08316 19.6731 9.90171
1 5.63621 20.4756 10.7044
1 6.42991 19.6819 10.7044
1 6.43299 20.46 9.89925
1 5.64596 19.6908 9.89371
1 7.22361 20.4756 10.7044
1 8.01732 19.6819 10.7044
1 8.01422 20.4633 9.92614
1 7.24212 19.6846 9.92209
1 8.81102 20.4756 10.7044
1 9.60472 19.6819 10.7044
1 9.6256 20.4698 9.92008
1 8.79856 19.6793 9.93597
1 10.3984 20.4756 10.7044
1 11.1921 19.6819 10.7044
1 11.2022 20.4637 9.92076
1 10.3994 19.6698 9.90004
1 11.9858 20.4756 10.7044
1 12.7795 19.6819 10.7044
1 12.7696 20.4776 9.9177
1 12.0004 19.6846 9.93064
1 13.5732 20.4756 10.7044
1 14.3669 19.6819 10.7044
1 14.3237 20.4801 9.8782
1 13.538 19.6947 9.91461
1 15 18.8882 10.7044
1 15.7937 18.0945 10.7044
1 15.8168 18.8903 9.88627
1 15.0513 18.0868 9.88205
1 16.5874 18.8882 10.7044
1 17.3811 18.0945 10.7044
1 17.395 18.8794 9.92428
1 16.6138 18.1049 9.8875
1 18.1748 18.8882 10.7044
1 18.9685 18.0945 10.7044
1 18.9668 18.8867 9.89989
1 18.1781 18.1204 9.89679
1 19.7622 18.8882 10.7044
1 20.5559 18.0945 10.7044
1 20.5288 18.8831 9.93671
1 19.7468 18.086 9.92374
1 21.3496 18.8882 10.7044
1 22.1433 18.0945 10.7044
1 22.1149 18.892 9.89278
1 21.3435 18.0882 9.90527
1 22.937 18.8882 10.7044
1 23.7307 18.0945 10.7044
1 23.7377 18.8734 9.90654
1 22.9043 18.0878 9.90523
1 24.5244 18.8882 10.7044
1 25.3181 18.0945 10.7044
1 25.3134 18.8852 9.88306
1 24.5224 18.0921 9.89384
1 26.1118 18.8882 10.7044
1 26.9055 18.0945 10.7044
1 26.9039 18.9043 9.9118
1 26.1061 18.0916 9.89276
1 27.6992 18.8882 10.7044
1 28.4929 18.0945 10.7044
1 28.4858 18.8783 9.90684
1 27.7031 18.0952 9.90032
1 29.2866 18.8882 10.7044
1 0.08031 18.0945 10.7044
1 0.0841957 18.8813 9.90831
1 29.2883 18.0919 9.93062
1 0.874011 18.8882 10.7044
1 1.66771 18.0945 10.7044
1 1.65275 18.89 9.9039
1 0.852918 18.1012 9.9151
1 2.46141 18.8882 10.7044
1 3.25511 18.0945 10.7044
1 3.2582 18.8932 9.88733
1 2.4759 18.118 9.90974
1 4.04881 18.8882 10.7044
1 4.84251 18.0945 10.7044
1 4.83801 18.8887 9.91509
1 4.05609 18.1188 9.90776
1 5.63621 18.8882 10.7044
1 6.42991 18.0945 10.7044
1 6.42557 18.8862 9.91226
1 5.64325 18.098 9.89583
1 7.22361 18.8882 10.7044
1 8.01732 18.0945 10.7044
1 8.022 18.8913 9.90543
1 7.23649 18.1172 9.92391
1 8.81102 18.8882 10.7044
1 9.60472 18.0945 10.7044
1 9.57513 18.8968 9.92249
1 8.81511 18.0857 9.91529
1 10.3984 18.8882 10.7044
1 11.1921 18.0945 10.7044
1 11.184 18.8873 9.9157
1 10.3977 18.1206 9.88721
1 11.9858 18.8882 10.7044
1 12.7795 18.0945 10.7044
1 12.7688 18.8672 9.92712
1 11.9734 18.1016 9.90894
1 13.5732 18.8882 10.7044
1 14.3669 18.0945 10.7044
1 14.3075 18.9005 9.86079
1 13.5325 18.0856 9.91507
1 15 17.3008 10.7044
1 15.7937 16.5071 10.7044
1 15.839 17.3385 9.91925
1 15.0709 16.5168 9.86727
1 16.5874 17.3008 10.7044
1 17.3811 16.5071 10.7044
1 17.3885 17.2881 9.92891
1 16.6131 16.5125 9.91823
1 18.1748 17.3008 10.7044
1 18.9685 16.5071 10.7044
1 18.9691 17.2808 9.92041
1 18.1666 16.4847 9.91263
1 19.7622 17.3008 10.7044
1 20.5559 16.5071 10.7044
1 20.5431 17.3132 9.91902
1 19.7642 16.4983 9.91688
1 21.3496 17.3008 10.7044
1 22.1433 16.5071 10.7044
1 22.1424 17.2975 9.91326
1 21.3415 16.537 9.92515
1 22.937 17.3008 10.7044
1 23.7307 16.5071 10.7044
1 23.7056 17.2879 9.92676
1 22.9406 16.504 9.91024
1 24.5244 17.3008 10.7044
1 25.3181 16.5071 10.7044
1 25.3295 17.3027 9.92598
1 24.5323 16.5154 9.8867
1 26.1118 17.3008 10.7044
1 26.9055 16.5071 10.7044
1 26.9167 17.2727 9.9021
1 26.1175 16.4853 9.91726
1 27.6992 17.3008 10.7044
1 28.4929 16.5071 10.7044
1 28.5006 17.3082 9.90659
1 27.7303 16.5015 9.91125
1 29.2866 17.3008 10.7044
1 0.08031 16.5071 10.7044
1 0.0772029 17.2829 9.90862
1 29.2651 16.4959 9.91231
1 0.874011 17.3008 10.7044
1 1.66771 16.5071 10.7044
1 1.7047 17.3418 9.92388
1 0.890386 16.5358 9.92605
1 2.46141 17.3008 10.7044
1 3.25511 16.5071 10.7044
1 3.23943 17.3094 9.91016
1 2.463 16.4896 9.90604
1 4.04881 17.3008 10.7044
1 4.84251 16.5071 10.7044
1 4.83369 17.3142 9.91692
1 4.04599 16.5172 9.9159
1 5.63621 17.3008 10.7044
1 6.42991 16.5071 10.7044
1 6.45424 17.3292 9.89824
1 5.64624 16.5266 9.91182
1 7.22361 17.3008 10.7044
1 8.01732 16.5071 10.7044
1 8.01237 17.3238 9.89795
1 7.23122 16.5149 9.92868
1 8.81102 17.3008 10.7044
1 9.60472 16.5071 10.7044
1 9.61536 17.3095 9.90325
1 8.81243 16.5183 9.92032
1 10.3984 17.3008 10.7044
1 11.1921 16.5071 10.7044
1 11.1883 17.3184 9.90651
1 10.3773 16.5263 9.90634
1 11.9858 17.3008 10.7044
1 12.7795 16.5071 10.7044
1 12.749 17.3052 9.8863
1 11.9627 16.5188 9.88857
1 13.5732 17.3008 10.7044
1 14.3669 16.5071 10.7044
1 14.3035 17.304 9.88319
1 13.5585 16.5054 9.90518
1 15 15.7134 10.7044
1 15.7937 14.9197 10.7044
1 15.8135 15.708 9.91382
1 15.049 14.9108 9.89085
1 16.5874 15.7134 10.7044
1 17.3811 14.9197 10.7044
1 17.3931 15.7228 9.91897
1 16.6161 14.9543 9.92458
1 18.1748 15.7134 10.7044
1 18.9685 14.9197 10.7044
1 19.0054 15.7109 9.91239
1 18.1882 14.9247 9.9447
1 19.7622 15.7134 10.7044
1 20.5559 14.9197 10.7044
1 20.5549 15.7152 9.92974
1 19.7616 14.91 9.95543
1 21.3496 15.7134 10.7044
1 22.1433 14.9197 10.7044
1 22.1421 15.7104 9.91742
1 21.3409 14.9158 9.91987
1 22.937 15.7134 10.7044
1 23.7307 14.9197 10.7044
1 23.731 15.7102 9.92397
1 22.9266 14.9092 9.92992
1 24.5244 15.7134 10.7044
1 25.3181 14.9197 10.7044
1 25.2992 15.6956 9.92987
1 24.5058 14.9103 9.91058
1 26.1118 15.7134 10.7044
1 26.9055 14.9197 10.7044
1 26.8891 15.7084 9.89315
1 26.1371 14.8999 9.90107
1 27.6992 15.7134 10.7044
1 28.4929 14.9197 10.7044
1 28.513 15.6718 9.88939
1 27.7002 14.9111 9.90503
1 29.2866 15.7134 10.7044
1 0.08031 14.9197 10.7044
1 0.095253 15.7218 9.91347
1 29.3015 14.9176 9.90152
1 0.874011 15.7134 10.7044
1 1.66771 14.9197 10.7044
1 1.66162 15.7525 9.90418
1 0.878308 14.9402 9.88825
1 2.46141 15.7134 10.7044
1 3.25511 14.9197 10.7044
1 3.27042 15.6999 9.91835
1 2.46169 14.9292 9.91792
1 4.04881 15.7134 10.7044
1 4.84251 14.9197 10.7044
1 4.85472 15.7329 9.89914
1 4.04908 14.9075 9.92632
1 5.63621 15.7134 10.7044
1 6.42991 14.9197 10.7044
1 6.42782 15.7007 9.89372
1 5.61829 14.9081 9.89179
1 7.22361 15.7134 10.7044
1 8.01732 14.9197 10.7044
1 8.00541 15.7163 9.90374
1 7.21967 14.9014 9.90505
1 8.81102 15.7134 10.7044
1 9.60472 14.9197 10.7044
1 9.577 15.7094 9.88073
1 8.79296 14.9072 9.89598
1 10.3984 15.7134 10.7044
1 11.1921 14.9197 10.7044
1 11.1642 15.7329 9.90759
1 10.4154 14.9067 9.89828
1 11.9858 15.7134 10.7044
1 12.7795 14.9197 10.7044
1 12.738 15.7033 9.91048
1 11.97 14.9313 9.91373
1 13.5732 15.7134 10.7044
1 14.3669 14.9197 10.7044
1 14.2809 15.7111 9.87389
1 13.5536 14.8876 9.92335
1 15 14.126 10.7044
1 15.7937 13.3323 10.7044
1 15.8327 14.1221 9.89444
1 15.08 13.3463 9.85703
1 16.5874 14.126 10.7044
1 17.3811 13.3323 10.7044
1 17.3677 14.1303 9.9249
1 16.6044 13.3325 9.92367
1 18.1748 14.126 10.7044
1 18.9685 13.3323 10.7044
1 18.9505 14.1246 9.91904
1 18.1457 13.3341 9.92927
1 19.7622 14.126 10.7044
1 20.5559 13.3323 10.7044
1 20.5348 14.107 9.93645
1 19.7626 13.3111 9.91201
1 21.3496 14.126 10.7044
1 22.1433 13.3323 10.7044
1 22.143 14.1504 9.9142
1 21.3636 13.3365 9.92341
1 22.937 14.126 10.7044
1 23.7307 13.3323 10.7044
1 23.7384 14.1434 9.93014
1 22.9349 13.3467 9.91109
1 24.5244 14.126 10.7044
1 25.3181 13.3323 10.7044
1 25.333 14.1235 9.9268
1 24.5212 13.3512 9.89224
1 26.1118 14.126 10.7044
1 26.9055 13.3323 10.7044
1 26.9137 14.12 9.88605
1 26.0866 13.3209 9.90924
1 27.6992 14.126 10.7044
1 28.4929 13.3323 10.7044
1 28.4903 14.1197 9.9183
1 27.7102 13.3057 9.89257
1 29.2866 14.126 10.7044
1 0.08031 13.3323 10.7044
1 0.0797933 14.1324 9.91877
1 29.2876 13.3365 9.89222
1 0.874011 14.126 10.7044
1 1.66771 13.3323 10.7044
1 1.66792 14.1272 9.87906
1 0.892407 13.3389 9.91471
1 2.46141 14.126 10.7044
1 3.25511 13.3323 10.7044
1 3.24639 14.1224 9.90047
1 2.47302 13.3463 9.9137
1 4.04881 14.126 10.7044
1 4.84251 13.3323 10.7044
1 4.82463 14.1198 9.89866
1 4.05383 13.363 9.91011
1 5.63621 14.126 10.7044
1 6.42991 13.3323 10.7044
1 6.43496 14.1135 9.9077
1 5.6512 13.3331 9.9024
1 7.22361 14.126 10.7044
1 8.01732 13.3323 10.7044
1 8.0128 14.1054 9.90164
1 7.19935 13.3472 9.89401
1 8.81102 14.126 10.7044
1 9.60472 13.3323 10.7044
1 9.58317 14.1186 9.90637
1 8.79207 13.3327 9.9126
1 10.3984 14.126 10.7044
1 11.1921 13.3323 10.7044
1 11.2043 14.1224 9.88358
1 10.409 13.3385 9.91349
1 11.9858 14.126 10.7044
1 12.7795 13.3323 10.7044
1 12.7359 14.1356 9.90049
1 11.9721 13.3231 9.93666
1 13.5732 14.126 10.7044
1 14.3669 13.3323 10.7044
1 14.2958 14.1285 9.87976
1 13.5483 13.331 9.91183
1 15 12.5386 10.7044
1 15.7937 11.7449 10.7044
1 15.8289 12.5427 9.91846
1 15.0519 11.7274 9.87785
1 16.5874 12.5386 10.7044
1 17.3811 11.7449 10.7044
1 17.4103 12.5291 9.90482
1 16.587 11.7226 9.91358
1 18.1748 12.5386 10.7044
1 18.9685 11.7449 10.7044
1 18.9785 12.519 9.90516
1 18.1778 11.7432 9.90933
1 19.7622 12.5386 10.7044
1 20.5559 11.7449 10.7044
1 20.5617 12.5305 9.90941
1 19.767 11.7369 9.91083
1 21.3496 12.5386 10.7044
1 22.1433 11.7449 10.7044
1 22.1539 12.5121 9.91351
1 21.3547 11.7292 9.91285
1 22.937 12.5386 10.7044
1 23.7307 11.7449 10.7044
1 23.7096 12.5482 9.92064
1 22.9439 11.7521 9.90322
1 24.5244 12.5386 10.7044
1 25.3181 11.7449 10.7044
1 25.2914 12.547 9.92236
1 24.5142 11.7744 9.89925
1 26.1118 12.5386 10.7044
1 26.9055 11.7449 10.7044
1 26.8938 12.5443 9.888
1 26.0971 11.7434 9.89873
1 27.6992 12.5386 10.7044
1 28.4929 11.7449 10.7044
1 28.4812 12.5243 9.88888
1 27.7033 11.7628 9.896
1 29.2866 12.5386 10.7044
1 0.08031 11.7449 10.7044
1 0.0852482 12.5451 9.90914
1 29.2711 11.7725 9.91675
1 0.874011 12.5386 10.7044
1 1.66771 11.7449 10.7044
1 1.67321 12.5206 9.89653
1 0.877437 11.7483 9.9139
1 2.46141 12.5386 10.7044
1 3.25511 11.7449 10.7044
1 3.28009 12.5336 9.87658
1 2.45318 11.7474 9.90651
1 4.04881 12.5386 10.7044
1 4.84251 11.7449 10.7044
1 4.83962 12.54 9.89939
1 4.0437 11.7265 9.91587
1 5.63621 12.5386 10.7044
1 6.42991 11.7449 10.7044
1 6.42129 12.5203 9.91577
1 5.63085 11.7394 9.89957
1 7.22361 12.5386 10.7044
1 8.01732 11.7449 10.7044
1 8.04071 12.5374 9.91471
1 7.21042 11.7537 9.8958
1 8.81102 12.5386 10.7044
1 9.60472 11.7449 10.7044
1 9.61514 12.5497 9.89918
1 8.81109 11.7322 9.9139
1 10.3984 12.5386 10.7044
1 11.1921 11.7449 10.7044
1 11.194 12.5298 9.90137
1 10.3812 11.749 9.938
1 11.9858 12.5386 10.7044
1 12.7795 11.7449 10.7044
1 12.7864 12.523 9.94536
1 11.973 11.7441 9.93065
1 13.5732 12.5386 10.7044
1 14.3669 11.7449 10.7044
1 14.3058 12.5413 9.86874
1 13.5728 11.7301 9.90339
1 15 10.9512 10.7044
1 15.7937 10.1575 10.7044
1 15.8024 10.9357 9.89939
1 15.044 10.1361 9.884
1 16.5874 10.9512 10.7044
1 17.3811 10.1575 10.7044
1 17.4032 10.9574 9.91509
1 16.6067 10.1512 9.87858
1 18.1748 10.9512 10.7044
1 18.9685 10.1575 10.7044
1 18.9495 10.9435 9.92628
1 18.1851 10.1641 9.90089
1 19.7622 10.9512 10.7044
1 20.5559 10.1575 10.7044
1 20.5561 10.9631 9.9186
1 19.7754 10.1785 9.91979
1 21.3496 10.9512 10.7044
1 22.1433 10.1575 10.7044
1 22.1694 10.9578 9.91853
1 21.3593 10.1761 9.90063
1 22.937 10.9512 10.7044
1 23.7307 10.1575 10.7044
1 23.7253 10.9555 9.91036
1 22.9372 10.1712 9.90174
1 24.5244 10.9512 10.7044
1 25.3181 10.1575 10.7044
1 25.3208 10.9616 9.91836
1 24.529 10.1713 9.92474
1 26.1118 10.9512 10.7044
1 26.9055 10.1575 10.7044
1 26.9157 10.9764 9.94753
1 26.123 10.1746 9.90524
1 27.6992 10.9512 10.7044
1 28.4929 10.1575 10.7044
1 28.4797 10.9479 9.89991
1 27.7007 10.1636 9.88558
1 29.2866 10.9512 10.7044
1 0.08031 10.1575 10.7044
1 0.0942074 10.9471 9.92414
1 29.2866 10.146 9.91775
1 0.874011 10.9512 10.7044
1 1.66771 10.1575 10.7044
1 1.67166 10.9202 9.90488
1 0.857126 10.1568 9.9112
1 2.46141 10.9512 10.7044
1 3.25511 10.1575 10.7044
1 3.24461 10.9324 9.90897
1 2.46564 10.1337 9.89833
1 4.04881 10.9512 10.7044
1 4.84251 10.1575 10.7044
1 4.84532 10.9166 9.90061
1 4.01918 10.1405 9.91615
1 5.63621 10.9512 10.7044
1 6.42991 10.1575 10.7044
1 6.43886 10.9399 9.91569
1 5.65534 10.1597 9.91292
1 7.22361 10.9512 10.7044
1 8.01732 10.1575 10.7044
1 8.01084 10.9296 9.93963
1 7.20216 10.1455 9.91368
1 8.81102 10.9512 10.7044
1 9.60472 10.1575 10.7044
1 9.58313 10.9436 9.89954
1 8.81621 10.1462 9.91271
1 10.3984 10.9512 10.7044
1 11.1921 10.1575 10.7044
1 11.1995 10.9587 9.9294
1 10.3907 10.1735 9.9098
1 11.9858 10.9512 10.7044
1 12.7795 10.1575 10.7044
1 12.7632 10.9377 9.89439
1 11.9754 10.1289 9.90726
1 13.5732 10.9512 10.7044
1 14.3669 10.1575 10.7044
1 14.3061 10.9429 9.88579
1 13.5386 10.1627 9.88801
1 15 9.36379 10.7044
1 15.7937 8.57009 10.7044
1 15.8415 9.31757 9.8742
1 15.0676 8.57741 9.87134
1 16.5874 9.36379 10.7044
1 17.3811 8.57009 10.7044
1 17.38 9.36547 9.91139
1 16.6154 8.56694 9.92699
1 18.1748 9.36379 10.7044
1 18.9685 8.57009 10.7044
1 19.0091 9.37477 9.93774
1 18.1916 8.59175 9.89605
1 19.7622 9.36379 10.7044
1 20.5559 8.57009 10.7044
1 20.5789 9.36759 9.9211
1 19.7853 8.55482 9.92936
1 21.3496 9.36379 10.7044
1 22.1433 8.57009 10.7044
1 22.1446 9.37048 9.91115
1 21.3716 8.55917 9.92153
1 22.937 9.36379 10.7044
1 23.7307 8.57009 10.7044
1 23.7393 9.36824 9.92637
1 22.9447 8.5538 9.93175
1 24.5244 9.36379 10.7044
1 25.3181 8.57009 10.7044
1 25.3127 9.38255 9.91957
1 24.5281 8.58533 9.91142
1 26.1118 9.36379 10.7044
1 26.9055 8.57009 10.7044
1 26.901 9.37282 9.8947
1 26.1168 8.57516 9.91246
1 27.6992 9.36379 10.7044
1 28.4929 8.57009 10.7044
1 28.4871 9.37434 9.89457
1 27.7115 8.58198 9.91352
1 29.2866 9.36379 10.7044
1 0.08031 8.57009 10.7044
1 0.0804853 9.33466 9.92241
1 29.2926 8.56289 9.91829
1 0.874011 9.36379 10.7044
1 1.66771 8.57009 10.7044
1 1.65322 9.36259 9.8854
1 0.885815 8.56 9.89386
1 2.46141 9.36379 10.7044
1 3.25511 8.57009 10.7044
1 3.24688 9.35441 9.85896
1 2.45531 8.58974 9.91884
1 4.04881 9.36379 10.7044
1 4.84251 8.57009 10.7044
1 4.83432 9.37664 9.91444
1 4.04495 8.58611 9.89824
1 5.63621 9.36379 10.7044
1 6.42991 8.57009 10.7044
1 6.41794 9.37097 9.92307
1 5.66185 8.56072 9.91642
1 7.22361 9.36379 10.7044
1 8.01732 8.57009 10.7044
1 8.02664 9.35603 9.91724
1 7.23697 8.56614 9.9052
1 8.81102 9.36379 10.7044
1 9.60472 8.57009 10.7044
1 9.59126 9.35198 9.93567
1 8.79159 8.55248 9.9025
1 10.3984 9.36379 10.7044
1 11.1921 8.57009 10.7044
1 11.1987 9.35008 9.91262
1 10.3732 8.55883 9.915
1 11.9858 9.36379 10.7044
1 12.7795 8.57009 10.7044
1 12.7709 9.3549 9.90737
1 11.9746 8.57621 9.93434
1 13.5732 9.36379 10.7044
1 14.3669 8.57009 10.7044
1 14.3051 9.35751 9.89608
1 13.5585 8.58854 9.91895
1 15 7.77639 10.7044
1 15.7937 6.98268 10.7044
1 15.8184 7.7579 9.87506
1 15.0594 6.97808 9.87301
1 16.5874 7.77639 10.7044
1 17.3811 6.98268 10.7044
1 17.3915 7.77738 9.89958
1 16.6179 7.0071 9.92271
1 18.1748 7.77639 10.7044
1 18.9685 6.98268 10.7044
1 18.9821 7.78886 9.91152
1 18.192 6.98679 9.91441
1 19.7622 7.77639 10.7044
1 20.5559 6.98268 10.7044
1 20.5591 7.77814 9.93437
1 19.7689 6.99809 9.91514
1 21.3496 7.77639 10.7044
1 22.1433 6.98268 10.7044
1 22.1403 7.76446 9.92427
1 21.3526 7.00689 9.91442
1 22.937 7.77639 10.7044
1 23.7307 6.98268 10.7044
1 23.7131 7.78629 9.91639
1 22.95 6.9722 9.91161
1 24.5244 7.77639 10.7044
1 25.3181 6.98268 10.7044
1 25.3304 7.78632 9.90735
1 24.5518 6.97863 9.92624
1 26.1118 7.77639 10.7044
1 26.9055 6.98268 10.7044
1 26.8955 7.78719 9.91836
1 26.1289 6.96543 9.90747
1 27.6992 7.77639 10.7044
1 28.4929 6.98268 10.7044
1 28.4717 7.76978 9.88793
1 27.7015 6.98998 9.90417
1 29.2866 7.77639 10.7044
1 0.08031 6.98268 10.7044
1 0.061429 7.77803 9.91458
1 29.2909 6.99413 9.89131
1 0.874011 7.77639 10.7044
1 1.66771 6.98268 10.7044
1 1.65366 7.7651 9.8808
1 0.888674 6.99912 9.92124
1 2.46141 7.77639 10.7044
1 3.25511 6.98268 10.7044
1 3.25512 7.77536 9.91746
1 2.46799 7.01348 9.90964
1 4.04881 7.77639 10.7044
1 4.84251 6.98268 10.7044
1 4.85313 7.77449 9.88859
1 4.04652 6.99076 9.88655
1 5.63621 7.77639 10.7044
1 6.42991 6.98268 10.7044
1 6.43041 7.75433 9.92341
1 5.6559 6.97625 9.88514
1 7.22361 7.77639 10.7044
1 8.01732 6.98268 10.7044
1 8.01545 7.77218 9.90275
1 7.21069 6.97467 9.89391
1 8.81102 7.77639 10.7044
1 9.60472 6.98268 10.7044
1 9.58587 7.78118 9.90973
1 8.79096 6.99222 9.91356
1 10.3984 7.77639 10.7044
1 11.1921 6.98268 10.7044
1 11.192 7.79289 9.926
1 10.3881 6.98282 9.93025
1 11.9858 7.77639 10.7044
1 12.7795 6.98268 10.7044
1 12.7378 7.7774 9.92986
1 11.97 6.98345 9.90769
1 13.5732 7.77639 10.7044
1 14.3669 6.98268 10.7044
1 14.2753 7.78856 9.87275
1 13.5178 6.95917 9.88626
1 15 6.18898 10.7044
1 15.7937 5.39528 10.7044
1 15.8171 6.20279 9.87583
1 15.0798 5.43346 9.90229
1 16.5874 6.18898 10.7044
1 17.3811 5.39528 10.7044
1 17.3842 6.19143 9.9362
1 16.5911 5.38381 9.91914
1 18.1748 6.18898 10.7044
1 18.9685 5.39528 10.7044
1 18.9903 6.19299 9.89698
1 18.1807 5.38845 9.91151
1 19.7622 6.18898 10.7044
1 20.5559 5.39528 10.7044
1 20.5562 6.1912 9.89783
1 19.7785 5.38761 9.90785
1 21.3496 6.18898 10.7044
1 22.1433 5.39528 10.7044
1 22.145 6.20347 9.91112
1 21.3729 5.40421 9.92369
1 22.937 6.18898 10.7044