9376
Atoms. Timestep: 4000000
1 7.5 3.55271e-15 10.588
1 8.2937 29.2063 10.588
1 8.31572 29.9273 9.74502
1 7.54749 29.1536 9.76781
1 9.0874 3.55271e-15 10.588
1 9.8811 29.2063 10.588
1 9.89467 29.914 9.74948
1 9.11368 29.1732 9.78189
1 10.6748 3.55271e-15 10.588
1 11.4685 29.2063 10.588
1 11.4871 29.9385 9.75891
1 10.7016 29.1983 9.78801
1 12.2622 3.55271e-15 10.588
1 13.0559 29.2063 10.588
1 13.0613 29.9117 9.76413
1 12.2818 29.198 9.78716
1 13.8496 3.55271e-15 10.588
1 14.6433 29.2063 10.588
1 14.6618 29.9265 9.75648
1 13.8531 29.1789 9.78536
1 15.437 3.55271e-15 10.588
1 16.2307 29.2063 10.588
1 16.2435 29.9066 9.75258
1 15.4358 29.1703 9.79469
1 17.0244 3.55271e-15 10.588
1 17.8181 29.2063 10.588
1 17.7981 29.9231 9.75965
1 17.0443 29.1433 9.79835
1 18.6118 3.55271e-15 10.588
1 19.4055 29.2063 10.588
1 19.4134 29.9367 9.76248
1 18.61 29.1715 9.77487
1 20.1992 3.55271e-15 10.588
1 20.9929 29.2063 10.588
1 21.007 29.9453 9.75735
1 20.2228 29.1767 9.79964
1 21.7866 3.55271e-15 10.588
1 22.5803 29.2063 10.588
1 22.5703 29.8926 9.77855
1 21.788 29.1502 9.7863
1 23.374 3.55271e-15 10.588
1 24.1677 29.2063 10.588
1 24.178 29.9282 9.76856
1 23.3986 29.1749 9.77967
1 24.9614 3.55271e-15 10.588
1 25.7551 29.2063 10.588
1 25.729 29.9485 9.7433
1 24.9565 29.1736 9.77241
1 26.5488 3.55271e-15 10.588
1 27.3425 29.2063 10.588
1 27.3377 29.9089 9.74177
1 26.5223 29.167 9.78655
1 28.1362 3.55271e-15 10.588
1 28.9299 29.2063 10.588
1 28.9395 29.9471 9.736
1 28.1458 29.1762 9.78556
1 29.7236 3.55271e-15 10.588
1 0.517315 29.2063 10.588
1 0.506527 29.9434 9.74707
1 29.7187 29.2029 9.77346
1 1.31102 3.55271e-15 10.588
1 2.10472 29.2063 10.588
1 2.09768 29.9294 9.78881
1 1.29184 29.2271 9.8015
1 2.89842 3.55271e-15 10.588
1 3.69212 29.2063 10.588
1 3.69157 29.9118 9.76189
1 2.89546 29.1551 9.80419
1 4.48582 3.55271e-15 10.588
1 5.27952 29.2063 10.588
1 5.23865 29.9387 9.76431
1 4.49422 29.1737 9.77881
1 6.07322 3.55271e-15 10.588
1 6.86692 29.2063 10.588
1 6.80055 29.9336 9.74065
1 6.05726 29.188 9.78615
1 7.5 28.4126 10.588
1 8.2937 27.6189 10.588
1 8.3043 28.4031 9.7906
1 7.55734 27.5927 9.76048
1 9.0874 28.4126 10.588
1 9.8811 27.6189 10.588
1 9.91783 28.4055 9.74521
1 9.11795 27.5914 9.77344
1 10.6748 28.4126 10.588
1 11.4685 27.6189 10.588
1 11.4973 28.3813 9.80271
1 10.6849 27.594 9.79143
1 12.2622 28.4126 10.588
1 13.0559 27.6189 10.588
1 13.0653 28.4098 9.78088
1 12.2759 27.5715 9.80231
1 13.8496 28.4126 10.588
1 14.6433 27.6189 10.588
1 14.6511 28.3857 9.81113
1 13.8687 27.6078 9.77438
1 15.437 28.4126 10.588
1 16.2307 27.6189 10.588
1 16.211 28.3999 9.80177
1 15.4427 27.6175 9.80201
1 17.0244 28.4126 10.588
1 17.8181 27.6189 10.588
1 17.8168 28.3921 9.7916
1 17.0147 27.5928 9.77674
1 18.6118 28.4126 10.588
1 19.4055 27.6189 10.588
1 19.3852 28.3984 9.78491
1 18.6247 27.5916 9.76334
1 20.1992 28.4126 10.588
1 20.9929 27.6189 10.588
1 20.9929 28.377 9.79747
1 20.1966 27.5809 9.79584
1 21.7866 28.4126 10.588
1 22.5803 27.6189 10.588
1 22.598 28.3964 9.78885
1 21.8101 27.6091 9.77874
1 23.374 28.4126 10.588
1 24.1677 27.6189 10.588
1 24.1942 28.4005 9.81109
1 23.3828 27.6043 9.8121
1 24.9614 28.4126 10.588
1 25.7551 27.6189 10.588
1 25.7532 28.3888 9.78575
1 24.9703 27.6066 9.79211
1 26.5488 28.4126 10.588
1 27.3425 27.6189 10.588
1 27.353 28.4087 9.79132
1 26.5649 27.6304 9.78968
1 28.1362 28.4126 10.588
1 28.9299 27.6189 10.588
1 28.9414 28.4259 9.77889
1 28.1315 27.6334 9.796
1 29.7236 28.4126 10.588
1 0.517315 27.6189 10.588
1 0.52079 28.4151 9.78012
1 29.733 27.6058 9.77837
1 1.31102 28.4126 10.588
1 2.10472 27.6189 10.588
1 2.10959 28.3937 9.8079
1 1.29825 27.613 9.79828
1 2.89842 28.4126 10.588
1 3.69212 27.6189 10.588
1 3.69222 28.3835 9.79504
1 2.91222 27.6183 9.80896
1 4.48582 28.4126 10.588
1 5.27952 27.6189 10.588
1 5.26943 28.3981 9.80603
1 4.46362 27.5878 9.77188
1 6.07322 28.4126 10.588
1 6.86692 27.6189 10.588
1 6.77795 28.3868 9.75753
1 6.02882 27.6119 9.75963
1 7.5 26.8252 10.588
1 8.2937 26.0315 10.588
1 8.34132 26.8281 9.80491
1 7.54439 26.0344 9.77709
1 9.0874 26.8252 10.588
1 9.8811 26.0315 10.588
1 9.90962 26.8107 9.8031
1 9.10612 26.0168 9.80252
1 10.6748 26.8252 10.588
1 11.4685 26.0315 10.588
1 11.4684 26.8102 9.79746
1 10.7033 26.0235 9.77538
1 12.2622 26.8252 10.588
1 13.0559 26.0315 10.588
1 13.067 26.8089 9.81575
1 12.2593 26.0012 9.7881
1 13.8496 26.8252 10.588
1 14.6433 26.0315 10.588
1 14.6472 26.8206 9.77114
1 13.8459 26.0384 9.79234
1 15.437 26.8252 10.588
1 16.2307 26.0315 10.588
1 16.2409 26.8085 9.79582
1 15.449 26.0239 9.79303
1 17.0244 26.8252 10.588
1 17.8181 26.0315 10.588
1 17.8267 26.8133 9.79996
1 17.0433 25.9986 9.77715
1 18.6118 26.8252 10.588
1 19.4055 26.0315 10.588
1 19.3791 26.8049 9.79829
1 18.6194 25.9955 9.79657
1 20.1992 26.8252 10.588
1 20.9929 26.0315 10.588
1 21.01 26.8135 9.78101
1 20.2045 26.0172 9.80725
1 21.7866 26.8252 10.588
1 22.5803 26.0315 10.588
1 22.5803 26.8107 9.78338
1 21.7982 26.0246 9.80296
1 23.374 26.8252 10.588
1 24.1677 26.0315 10.588
1 24.1709 26.836 9.7929
1 23.3911 26.05 9.76879
1 24.9614 26.8252 10.588
1 25.7551 26.0315 10.588
1 25.7752 26.8059 9.78953
1 24.967 26.0412 9.80748
1 26.5488 26.8252 10.588
1 27.3425 26.0315 10.588
1 27.3507 26.7994 9.80077
1 26.5731 26.0192 9.80025
1 28.1362 26.8252 10.588
1 28.9299 26.0315 10.588
1 28.9268 26.8263 9.7816
1 28.1448 26.032 9.79381
1 29.7236 26.8252 10.588
1 0.517315 26.0315 10.588
1 0.512312 26.8361 9.8002
1 29.7086 26.0383 9.77673
1 1.31102 26.8252 10.588
1 2.10472 26.0315 10.588
1 2.08862 26.8431 9.79226
1 1.31427 26.0456 9.8132
1 2.89842 26.8252 10.588
1 3.69212 26.0315 10.588
1 3.6835 26.8142 9.79014
1 2.87212 26.0567 9.7775
1 4.48582 26.8252 10.588
1 5.27952 26.0315 10.588
1 5.26112 26.8165 9.78343
1 4.47846 26.0268 9.79038
1 6.07322 26.8252 10.588
1 6.86692 26.0315 10.588
1 6.78704 26.812 9.76262
1 6.05875 26.0324 9.78222
1 7.5 25.2378 10.588
1 8.2937 24.4441 10.588
1 8.30516 25.2407 9.81241
1 7.57894 24.4498 9.7293
1 9.0874 25.2378 10.588
1 9.8811 24.4441 10.588
1 9.92188 25.229 9.7664
1 9.10301 24.428 9.80289
1 10.6748 25.2378 10.588
1 11.4685 24.4441 10.588
1 11.4737 25.2369 9.79937
1 10.6891 24.4298 9.7802
1 12.2622 25.2378 10.588
1 13.0559 24.4441 10.588
1 13.0791 25.2406 9.79215
1 12.2678 24.4459 9.77981
1 13.8496 25.2378 10.588
1 14.6433 24.4441 10.588
1 14.6384 25.235 9.80233
1 13.8552 24.4318 9.77666
1 15.437 25.2378 10.588
1 16.2307 24.4441 10.588
1 16.2437 25.2202 9.79275
1 15.4441 24.4452 9.8028
1 17.0244 25.2378 10.588
1 17.8181 24.4441 10.588
1 17.81 25.213 9.77721
1 17.0339 24.4301 9.78129
1 18.6118 25.2378 10.588
1 19.4055 24.4441 10.588
1 19.4104 25.23 9.7764
1 18.6284 24.4278 9.76746
1 20.1992 25.2378 10.588
1 20.9929 24.4441 10.588
1 21.01 25.2305 9.80304
1 20.2162 24.4288 9.81046
1 21.7866 25.2378 10.588
1 22.5803 24.4441 10.588
1 22.5975 25.2309 9.79788
1 21.7923 24.4425 9.81111
1 23.374 25.2378 10.588
1 24.1677 24.4441 10.588
1 24.177 25.2281 9.80079
1 23.3817 24.4107 9.80993
1 24.9614 25.2378 10.588
1 25.7551 24.4441 10.588
1 25.7707 25.2557 9.82331
1 24.9779 24.4294 9.79655
1 26.5488 25.2378 10.588
1 27.3425 24.4441 10.588
1 27.3642 25.222 9.79555
1 26.5515 24.4608 9.81426
1 28.1362 25.2378 10.588
1 28.9299 24.4441 10.588
1 28.9414 25.2229 9.77009
1 28.1423 24.4434 9.79645
1 29.7236 25.2378 10.588
1 0.517315 24.4441 10.588
1 0.509757 25.2476 9.81627
1 29.7396 24.4249 9.81534
1 1.31102 25.2378 10.588
1 2.10472 24.4441 10.588
1 2.07983 25.2217 9.78908
1 1.31376 24.4279 9.77768
1 2.89842 25.2378 10.588
1 3.69212 24.4441 10.588
1 3.6817 25.2645 9.81462
1 2.88637 24.4422 9.78963
1 4.48582 25.2378 10.588
1 5.27952 24.4441 10.588
1 5.27991 25.2314 9.7909
1 4.46836 24.4395 9.77726
1 6.07322 25.2378 10.588
1 6.86692 24.4441 10.588
1 6.8037 25.241 9.75573
1 6.04718 24.4529 9.78665
1 7.5 23.6504 10.588
1 8.2937 22.8567 10.588
1 8.28683 23.6266 9.76343
1 7.56151 22.8464 9.75378
1 9.0874 23.6504 10.588
1 9.8811 22.8567 10.588
1 9.88829 23.6619 9.76209
1 9.1096 22.8332 9.79339
1 10.6748 23.6504 10.588
1 11.4685 22.8567 10.588
1 11.4721 23.6473 9.78876
1 10.6643 22.881 9.79279
1 12.2622 23.6504 10.588
1 13.0559 22.8567 10.588
1 13.0454 23.6477 9.80609
1 12.2799 22.8647 9.78119
1 13.8496 23.6504 10.588
1 14.6433 22.8567 10.588
1 14.6364 23.6675 9.80124
1 13.8695 22.8561 9.81304
1 15.437 23.6504 10.588
1 16.2307 22.8567 10.588
1 16.2244 23.65 9.78446
1 15.4293 22.8603 9.80061
1 17.0244 23.6504 10.588
1 17.8181 22.8567 10.588
1 17.8276 23.6426 9.80624
1 17.021 22.869 9.80624
1 18.6118 23.6504 10.588
1 19.4055 22.8567 10.588
1 19.4125 23.6415 9.79806
1 18.6065 22.8636 9.78557
1 20.1992 23.6504 10.588
1 20.9929 22.8567 10.588
1 20.9935 23.6223 9.79776
1 20.188 22.8281 9.80888
1 21.7866 23.6504 10.588
1 22.5803 22.8567 10.588
1 22.576 23.6668 9.79315
1 21.7732 22.8587 9.79898
1 23.374 23.6504 10.588
1 24.1677 22.8567 10.588
1 24.1656 23.6188 9.78835
1 23.3711 22.8235 9.79995
1 24.9614 23.6504 10.588
1 25.7551 22.8567 10.588
1 25.7572 23.6715 9.7971
1 24.969 22.8302 9.80541
1 26.5488 23.6504 10.588
1 27.3425 22.8567 10.588
1 27.3369 23.6723 9.79074
1 26.5424 22.8448 9.81598
1 28.1362 23.6504 10.588
1 28.9299 22.8567 10.588
1 28.935 23.6501 9.81289
1 28.0994 22.8717 9.7864
1 29.7236 23.6504 10.588
1 0.517315 22.8567 10.588
1 0.549289 23.6455 9.79506
1 29.7063 22.8475 9.79247
1 1.31102 23.6504 10.588
1 2.10472 22.8567 10.588
1 2.08295 23.6354 9.80294
1 1.3089 22.8572 9.80679
1 2.89842 23.6504 10.588
1 3.69212 22.8567 10.588
1 3.67032 23.6577 9.76131
1 2.87654 22.8611 9.81501
1 4.48582 23.6504 10.588
1 5.27952 22.8567 10.588
1 5.25489 23.6617 9.77098
1 4.46282 22.8617 9.78178
1 6.07322 23.6504 10.588
1 6.86692 22.8567 10.588
1 6.80801 23.6532 9.7508
1 6.02421 22.8553 9.78919
1 7.5 22.063 10.588
1 8.2937 21.2693 10.588
1 8.30644 22.058 9.78532
1 7.55061 21.2484 9.73333
1 9.0874 22.063 10.588
1 9.8811 21.2693 10.588
1 9.88763 22.0541 9.78701
1 9.08016 21.2599 9.76699
1 10.6748 22.063 10.588
1 11.4685 21.2693 10.588
1 11.4512 22.0534 9.78223
1 10.691 21.272 9.78655
1 12.2622 22.063 10.588
1 13.0559 21.2693 10.588
1 13.0585 22.062 9.78822
1 12.2687 21.2528 9.80569
1 13.8496 22.063 10.588
1 14.6433 21.2693 10.588
1 14.6543 22.0438 9.80681
1 13.853 21.2792 9.81819
1 15.437 22.063 10.588
1 16.2307 21.2693 10.588
1 16.2393 22.0502 9.80086
1 15.4373 21.2566 9.81324
1 17.0244 22.063 10.588
1 17.8181 21.2693 10.588
1 17.8138 22.0595 9.79567
1 17.0129 21.2722 9.78839
1 18.6118 22.063 10.588
1 19.4055 21.2693 10.588
1 19.4047 22.0597 9.78164
1 18.6 21.2451 9.83477
1 20.1992 22.063 10.588
1 20.9929 21.2693 10.588
1 20.9852 22.0893 9.80908
1 20.1942 21.261 9.80301
1 21.7866 22.063 10.588
1 22.5803 21.2693 10.588
1 22.5776 22.0654 9.80855
1 21.7736 21.2529 9.80672
1 23.374 22.063 10.588
1 24.1677 21.2693 10.588
1 24.1542 22.071 9.79316
1 23.3952 21.2777 9.81241
1 24.9614 22.063 10.588
1 25.7551 21.2693 10.588
1 25.7688 22.0624 9.79994
1 24.9792 21.2938 9.81035
1 26.5488 22.063 10.588
1 27.3425 21.2693 10.588
1 27.322 22.0645 9.79828
1 26.5515 21.2708 9.79186
1 28.1362 22.063 10.588
1 28.9299 21.2693 10.588
1 28.9341 22.0791 9.8178
1 28.1417 21.2766 9.7701
1 29.7236 22.063 10.588
1 0.517315 21.2693 10.588
1 0.49699 22.0655 9.80047
1 29.72 21.2815 9.80883
1 1.31102 22.063 10.588
1 2.10472 21.2693 10.588
1 2.08901 22.0774 9.77085
1 1.32076 21.2983 9.80306
1 2.89842 22.063 10.588
1 3.69212 21.2693 10.588
1 3.68451 22.0682 9.79512
1 2.86625 21.2873 9.76035
1 4.48582 22.063 10.588
1 5.27952 21.2693 10.588
1 5.24325 22.0585 9.78487
1 4.47066 21.2698 9.77109
1 6.07322 22.063 10.588
1 6.86692 21.2693 10.588
1 6.78643 22.047 9.74268
1 6.04161 21.2383 9.78895
1 7.5 20.4756 10.588
1 8.2937 19.6819 10.588
1 8.32728 20.493 9.77864
1 7.55937 19.669 9.7462
1 9.0874 20.4756 10.588
1 9.8811 19.6819 10.588
1 9.88472 20.4878 9.7747
1 9.14575 19.6608 9.80258
1 10.6748 20.4756 10.588
1 11.4685 19.6819 10.588
1 11.4745 20.4758 9.81095
1 10.6747 19.69 9.78109
1 12.2622 20.4756 10.588
1 13.0559 19.6819 10.588
1 13.0321 20.4891 9.80497
1 12.2706 19.6779 9.78929
1 13.8496 20.4756 10.588
1 14.6433 19.6819 10.588
1 14.6604 20.4886 9.7881
1 13.8595 19.7087 9.79785
1 15.437 20.4756 10.588
1 16.2307 19.6819 10.588
1 16.2213 20.4808 9.78767
1 15.4396 19.6694 9.78146
1 17.0244 20.4756 10.588
1 17.8181 19.6819 10.588
1 17.8047 20.452 9.8027
1 17.0155 19.6966 9.79925
1 18.6118 20.4756 10.588
1 19.4055 19.6819 10.588
1 19.3917 20.494 9.80085
1 18.5819 19.6731 9.80136
1 20.1992 20.4756 10.588
1 20.9929 19.6819 10.588
1 20.9874 20.4575 9.79725
1 20.2061 19.7 9.78605
1 21.7866 20.4756 10.588
1 22.5803 19.6819 10.588
1 22.6049 20.4733 9.80798
1 21.7641 19.6594 9.80901
1 23.374 20.4756 10.588
1 24.1677 19.6819 10.588
1 24.1685 20.5196 9.82294
1 23.3774 19.7038 9.80191
1 24.9614 20.4756 10.588
1 25.7551 19.6819 10.588
1 25.7715 20.4855 9.8203
1 24.9431 19.7086 9.82848
1 26.5488 20.4756 10.588
1 27.3425 19.6819 10.588
1 27.3617 20.4737 9.80499
1 26.5613 19.6765 9.80534
1 28.1362 20.4756 10.588
1 28.9299 19.6819 10.588
1 28.9402 20.487 9.77197
1 28.1358 19.7078 9.78197
1 29.7236 20.4756 10.588
1 0.517315 19.6819 10.588
1 0.502073 20.4908 9.79897
1 29.7065 19.6924 9.77693
1 1.31102 20.4756 10.588
1 2.10472 19.6819 10.588
1 2.10132 20.4817 9.77969
1 1.30146 19.6926 9.79469
1 2.89842 20.4756 10.588
1 3.69212 19.6819 10.588
1 3.67016 20.4779 9.79879
1 2.88501 19.6607 9.7922
1 4.48582 20.4756 10.588
1 5.27952 19.6819 10.588
1 5.23923 20.4691 9.78604
1 4.48835 19.6671 9.77275
1 6.07322 20.4756 10.588
1 6.86692 19.6819 10.588
1 6.81108 20.4846 9.74782
1 6.04667 19.6989 9.77282
1 7.5 18.8882 10.588
1 8.2937 18.0945 10.588
1 8.33314 18.9005 9.76717
1 7.56372 18.0996 9.75279
1 9.0874 18.8882 10.588
1 9.8811 18.0945 10.588
1 9.90041 18.8827 9.76377
1 9.10185 18.1024 9.77426
1 10.6748 18.8882 10.588
1 11.4685 18.0945 10.588
1 11.4976 18.8904 9.77404
1 10.692 18.0969 9.79637
1 12.2622 18.8882 10.588
1 13.0559 18.0945 10.588
1 13.0549 18.8883 9.80159
1 12.2576 18.0847 9.81312
1 13.8496 18.8882 10.588
1 14.6433 18.0945 10.588
1 14.65 18.9042 9.79282
1 13.8829 18.0923 9.77018
1 15.437 18.8882 10.588
1 16.2307 18.0945 10.588
1 16.2188 18.9141 9.80539
1 15.4443 18.0884 9.79186
1 17.0244 18.8882 10.588
1 17.8181 18.0945 10.588
1 17.7954 18.8844 9.80696
1 16.9945 18.1136 9.81268
1 18.6118 18.8882 10.588
1 19.4055 18.0945 10.588
1 19.418 18.9217 9.79564
1 18.5796 18.1118 9.78919
1 20.1992 18.8882 10.588
1 20.9929 18.0945 10.588
1 20.9994 18.8755 9.79627
1 20.1897 18.0899 9.78568
1 21.7866 18.8882 10.588
1 22.5803 18.0945 10.588
1 22.585 18.8857 9.82004
1 21.7955 18.0894 9.80303
1 23.374 18.8882 10.588
1 24.1677 18.0945 10.588
1 24.1577 18.8821 9.79385
1 23.3875 18.0727 9.81883
1 24.9614 18.8882 10.588
1 25.7551 18.0945 10.588
1 25.7649 18.9271 9.78647
1 24.9657 18.0899 9.78924
1 26.5488 18.8882 10.588
1 27.3425 18.0945 10.588
1 27.3637 18.8852 9.79422
1 26.5369 18.1113 9.82764
1 28.1362 18.8882 10.588
1 28.9299 18.0945 10.588
1 28.923 18.8787 9.80357
1 28.1309 18.0873 9.78502
1 29.7236 18.8882 10.588
1 0.517315 18.0945 10.588
1 0.510959 18.8825 9.80421
1 29.7129 18.0792 9.79464
1 1.31102 18.8882 10.588
1 2.10472 18.0945 10.588
1 2.09088 18.884 9.77349
1 1.28167 18.1241 9.80149
1 2.89842 18.8882 10.588
1 3.69212 18.0945 10.588
1 3.6886 18.8777 9.80038
1 2.87529 18.1125 9.78587
1 4.48582 18.8882 10.588
1 5.27952 18.0945 10.588
1 5.27656 18.867 9.77891
1 4.46641 18.1063 9.81351
1 6.07322 18.8882 10.588
1 6.86692 18.0945 10.588
1 6.78112 18.8944 9.74522
1 6.02745 18.0794 9.77479
1 7.5 17.3008 10.588
1 8.2937 16.5071 10.588
1 8.30682 17.3229 9.79584
1 7.56069 16.5006 9.74336
1 9.0874 17.3008 10.588
1 9.8811 16.5071 10.588
1 9.89064 17.3261 9.78942
1 9.09754 16.5299 9.78227
1 10.6748 17.3008 10.588
1 11.4685 16.5071 10.588
1 11.485 17.3172 9.78109
1 10.6733 16.5421 9.81403
1 12.2622 17.3008 10.588
1 13.0559 16.5071 10.588
1 13.0774 17.2898 9.78294
1 12.2854 16.5184 9.78938
1 13.8496 17.3008 10.588
1 14.6433 16.5071 10.588
1 14.6478 17.3328 9.7726
1 13.8518 16.5004 9.81005
1 15.437 17.3008 10.588
1 16.2307 16.5071 10.588
1 16.2226 17.2867 9.79543
1 15.4255 16.4852 9.78579
1 17.0244 17.3008 10.588
1 17.8181 16.5071 10.588
1 17.8179 17.3051 9.80765
1 17.0248 16.4846 9.76642
1 18.6118 17.3008 10.588
1 19.4055 16.5071 10.588
1 19.3933 17.2978 9.80513
1 18.6077 16.4838 9.78825
1 20.1992 17.3008 10.588
1 20.9929 16.5071 10.588
1 21.0012 17.2928 9.81336
1 20.2176 16.4992 9.79174
1 21.7866 17.3008 10.588
1 22.5803 16.5071 10.588
1 22.5942 17.2928 9.79564
1 21.8056 16.4952 9.82243
1 23.374 17.3008 10.588
1 24.1677 16.5071 10.588
1 24.1682 17.2984 9.78092
1 23.3732 16.4835 9.78547
1 24.9614 17.3008 10.588
1 25.7551 16.5071 10.588
1 25.7581 17.2893 9.8128
1 24.9735 16.4959 9.80156
1 26.5488 17.3008 10.588
1 27.3425 16.5071 10.588
1 27.3399 17.2593 9.80318
1 26.5258 16.5067 9.7981
1 28.1362 17.3008 10.588
1 28.9299 16.5071 10.588
1 28.9457 17.295 9.78758
1 28.1227 16.5079 9.8029
1 29.7236 17.3008 10.588
1 0.517315 16.5071 10.588
1 0.515372 17.3089 9.80659
1 29.7169 16.51 9.80289
1 1.31102 17.3008 10.588
1 2.10472 16.5071 10.588
1 2.0779 17.3121 9.80614
1 1.31185 16.492 9.78082
1 2.89842 17.3008 10.588
1 3.69212 16.5071 10.588
1 3.6897 17.3172 9.77459
1 2.87955 16.5015 9.79562
1 4.48582 17.3008 10.588
1 5.27952 16.5071 10.588
1 5.234 17.3439 9.80799
1 4.46206 16.5076 9.78492
1 6.07322 17.3008 10.588
1 6.86692 16.5071 10.588
1 6.79149 17.3269 9.75242
1 6.01981 16.5143 9.81538
1 7.5 15.7134 10.588
1 8.2937 14.9197 10.588
1 8.32566 15.7161 9.77228
1 7.54831 14.893 9.77144
1 9.0874 15.7134 10.588
1 9.8811 14.9197 10.588
1 9.90284 15.7195 9.78084
1 9.12069 14.9195 9.8008
1 10.6748 15.7134 10.588
1 11.4685 14.9197 10.588
1 11.4741 15.7219 9.77858
1 10.6798 14.9284 9.79426
1 12.2622 15.7134 10.588
1 13.0559 14.9197 10.588
1 13.0541 15.722 9.80486
1 12.29 14.9427 9.82514
1 13.8496 15.7134 10.588
1 14.6433 14.9197 10.588
1 14.657 15.7107 9.80361
1 13.8485 14.9019 9.78838
1 15.437 15.7134 10.588
1 16.2307 14.9197 10.588
1 16.2318 15.7057 9.77544
1 15.461 14.9247 9.78432
1 17.0244 15.7134 10.588
1 17.8181 14.9197 10.588
1 17.8304 15.6972 9.78571
1 17.0109 14.9249 9.79575
1 18.6118 15.7134 10.588
1 19.4055 14.9197 10.588
1 19.4127 15.6958 9.79458
1 18.6018 14.9063 9.80025
1 20.1992 15.7134 10.588
1 20.9929 14.9197 10.588
1 20.9895 15.708 9.78594
1 20.1973 14.9133 9.79321
1 21.7866 15.7134 10.588
1 22.5803 14.9197 10.588
1 22.5624 15.7209 9.81179
1 21.7593 14.9482 9.78847
1 23.374 15.7134 10.588
1 24.1677 14.9197 10.588
1 24.1681 15.7102 9.79279
1 23.3915 14.9112 9.79834
1 24.9614 15.7134 10.588
1 25.7551 14.9197 10.588
1 25.7345 15.6968 9.83354
1 24.9589 14.9104 9.7816
1 26.5488 15.7134 10.588
1 27.3425 14.9197 10.588
1 27.3465 15.7019 9.81125
1 26.535 14.9253 9.7874
1 28.1362 15.7134 10.588
1 28.9299 14.9197 10.588
1 28.9349 15.696 9.79094
1 28.1488 14.8972 9.82709
1 29.7236 15.7134 10.588
1 0.517315 14.9197 10.588
1 0.537308 15.7296 9.77796
1 29.7226 14.9086 9.79777
1 1.31102 15.7134 10.588
1 2.10472 14.9197 10.588
1 2.08883 15.7424 9.78083
1 1.30363 14.933 9.80575
1 2.89842 15.7134 10.588
1 3.69212 14.9197 10.588
1 3.67159 15.7167 9.79696
1 2.88433 14.952 9.80222
1 4.48582 15.7134 10.588
1 5.27952 14.9197 10.588
1 5.27215 15.7246 9.79984
1 4.49399 14.9227 9.80725
1 6.07322 15.7134 10.588
1 6.86692 14.9197 10.588
1 6.79729 15.7071 9.75204
1 6.02147 14.9346 9.77461
1 7.5 14.126 10.588
1 8.2937 13.3323 10.588
1 8.34404 14.1448 9.79271
1 7.54909 13.3522 9.74352
1 9.0874 14.126 10.588
1 9.8811 13.3323 10.588
1 9.8885 14.1309 9.81382
1 9.09519 13.3405 9.79735
1 10.6748 14.126 10.588
1 11.4685 13.3323 10.588
1 11.4786 14.1303 9.80592
1 10.716 13.3391 9.78171
1 12.2622 14.126 10.588
1 13.0559 13.3323 10.588
1 13.0625 14.1385 9.79167
1 12.2959 13.3344 9.7739
1 13.8496 14.126 10.588
1 14.6433 13.3323 10.588
1 14.6282 14.1109 9.78961
1 13.8353 13.323 9.80175
1 15.437 14.126 10.588
1 16.2307 13.3323 10.588
1 16.2267 14.1099 9.79953
1 15.4507 13.3207 9.80146
1 17.0244 14.126 10.588
1 17.8181 13.3323 10.588
1 17.8061 14.1415 9.83156
1 17.0466 13.3361 9.7942
1 18.6118 14.126 10.588
1 19.4055 13.3323 10.588
1 19.4114 14.145 9.80788
1 18.5986 13.3481 9.78395
1 20.1992 14.126 10.588
1 20.9929 13.3323 10.588
1 20.9864 14.1214 9.81205
1 20.1957 13.3193 9.81674
1 21.7866 14.126 10.588
1 22.5803 13.3323 10.588
1 22.5643 14.1231 9.78751
1 21.7957 13.3532 9.82297
1 23.374 14.126 10.588
1 24.1677 13.3323 10.588
1 24.1685 14.1186 9.79249
1 23.3723 13.3523 9.78716
1 24.9614 14.126 10.588
1 25.7551 13.3323 10.588
1 25.7654 14.1171 9.7984
1 24.951 13.3325 9.79121
1 26.5488 14.126 10.588
1 27.3425 13.3323 10.588
1 27.3426 14.1186 9.80844
1 26.5521 13.318 9.79475
1 28.1362 14.126 10.588
1 28.9299 13.3323 10.588
1 28.9267 14.1234 9.80745
1 28.1323 13.3051 9.77012
1 29.7236 14.126 10.588
1 0.517315 13.3323 10.588
1 0.510402 14.1072 9.77864
1 29.7031 13.3387 9.78594
1 1.31102 14.126 10.588
1 2.10472 13.3323 10.588
1 2.09394 14.1149 9.77916
1 1.30968 13.3362 9.77159
1 2.89842 14.126 10.588
1 3.69212 13.3323 10.588
1 3.67614 14.1265 9.77102
1 2.90782 13.3318 9.80281
1 4.48582 14.126 10.588
1 5.27952 13.3323 10.588
1 5.25544 14.1148 9.79502
1 4.47597 13.3601 9.80476
1 6.07322 14.126 10.588
1 6.86692 13.3323 10.588
1 6.78529 14.119 9.77384
1 6.04126 13.3322 9.78237
1 7.5 12.5386 10.588
1 8.2937 11.7449 10.588
1 8.32446 12.5536 9.79631
1 7.56972 11.7447 9.764
1 9.0874 12.5386 10.588
1 9.8811 11.7449 10.588
1 9.8908 12.54 9.78287
1 9.07081 11.7469 9.78348
1 10.6748 12.5386 10.588
1 11.4685 11.7449 10.588
1 11.5056 12.5097 9.78646
1 10.6969 11.7664 9.79256
1 12.2622 12.5386 10.588
1 13.0559 11.7449 10.588
1 13.0752 12.5137 9.79515
1 12.2395 11.7329 9.81555
1 13.8496 12.5386 10.588
1 14.6433 11.7449 10.588
1 14.6595 12.5728 9.78911
1 13.8685 11.7416 9.75782
1 15.437 12.5386 10.588
1 16.2307 11.7449 10.588
1 16.2493 12.5286 9.77971
1 15.4552 11.7243 9.78426
1 17.0244 12.5386 10.588
1 17.8181 11.7449 10.588
1 17.8306 12.5238 9.77979
1 17.0333 11.7229 9.77379
1 18.6118 12.5386 10.588
1 19.4055 11.7449 10.588
1 19.4135 12.5584 9.77801
1 18.6188 11.7669 9.80201
1 20.1992 12.5386 10.588
1 20.9929 11.7449 10.588
1 21.0044 12.5467 9.78509
1 20.2125 11.7244 9.809
1 21.7866 12.5386 10.588
1 22.5803 11.7449 10.588
1 22.5878 12.549 9.80479
1 21.7874 11.7493 9.80702
1 23.374 12.5386 10.588
1 24.1677 11.7449 10.588
1 24.1469 12.5497 9.80129
1 23.3919 11.7406 9.7955
1 24.9614 12.5386 10.588
1 25.7551 11.7449 10.588
1 25.752 12.5404 9.82982
1 24.959 11.7209 9.80305
1 26.5488 12.5386 10.588
1 27.3425 11.7449 10.588
1 27.3433 12.5257 9.80764
1 26.5232 11.7475 9.78688
1 28.1362 12.5386 10.588
1 28.9299 11.7449 10.588
1 28.9483 12.5305 9.80829
1 28.1692 11.7477 9.79954
1 29.7236 12.5386 10.588
1 0.517315 11.7449 10.588
1 0.518201 12.5318 9.78629
1 29.6978 11.755 9.80795
1 1.31102 12.5386 10.588
1 2.10472 11.7449 10.588
1 2.09133 12.5401 9.78421
1 1.29766 11.7276 9.80781
1 2.89842 12.5386 10.588
1 3.69212 11.7449 10.588
1 3.68026 12.5517 9.78534
1 2.89615 11.7326 9.80057
1 4.48582 12.5386 10.588
1 5.27952 11.7449 10.588
1 5.24673 12.5335 9.78724
1 4.49251 11.759 9.80213
1 6.07322 12.5386 10.588
1 6.86692 11.7449 10.588
1 6.79502 12.5313 9.75655
1 6.03316 11.746 9.77853
1 7.5 10.9512 10.588
1 8.2937 10.1575 10.588
1 8.33417 10.9639 9.8001
1 7.57477 10.1488 9.78785
1 9.0874 10.9512 10.588
1 9.8811 10.1575 10.588
1 9.87446 10.9642 9.81355
1 9.10893 10.1501 9.7814
1 10.6748 10.9512 10.588
1 11.4685 10.1575 10.588
1 11.4664 10.9566 9.78072
1 10.6834 10.1446 9.80617
1 12.2622 10.9512 10.588
1 13.0559 10.1575 10.588
1 13.0551 10.9337 9.80179
1 12.2791 10.1723 9.80936
1 13.8496 10.9512 10.588
1 14.6433 10.1575 10.588
1 14.6591 10.9405 9.8015
1 13.8706 10.1523 9.79582
1 15.437 10.9512 10.588
1 16.2307 10.1575 10.588
1 16.2465 10.9317 9.79355
1 15.4557 10.1431 9.78286
1 17.0244 10.9512 10.588
1 17.8181 10.1575 10.588
1 17.8281 10.9289 9.80018
1 17.0398 10.1435 9.78615
1 18.6118 10.9512 10.588
1 19.4055 10.1575 10.588
1 19.4064 10.9567 9.80553
1 18.6323 10.1512 9.80432
1 20.1992 10.9512 10.588
1 20.9929 10.1575 10.588
1 21.0025 10.9439 9.77846
1 20.2055 10.1624 9.8103
1 21.7866 10.9512 10.588
1 22.5803 10.1575 10.588
1 22.5705 10.9375 9.78799
1 21.8077 10.1407 9.80118
1 23.374 10.9512 10.588
1 24.1677 10.1575 10.588
1 24.1605 10.9543 9.79099
1 23.3515 10.1499 9.80091
1 24.9614 10.9512 10.588
1 25.7551 10.1575 10.588
1 25.7351 10.9455 9.79621
1 24.959 10.1542 9.80718
1 26.5488 10.9512 10.588
1 27.3425 10.1575 10.588
1 27.3197 10.9568 9.79508
1 26.5443 10.1438 9.78412
1 28.1362 10.9512 10.588
1 28.9299 10.1575 10.588
1 28.9415 10.9546 9.80388
1 28.1313 10.1428 9.80782
1 29.7236 10.9512 10.588
1 0.517315 10.1575 10.588
1 0.488898 10.9316 9.81737
1 29.7341 10.1391 9.8
1 1.31102 10.9512 10.588
1 2.10472 10.1575 10.588
1 2.0935 10.9611 9.78954
1 1.30082 10.1654 9.78959
1 2.89842 10.9512 10.588
1 3.69212 10.1575 10.588
1 3.71069 10.9481 9.80418
1 2.86199 10.153 9.81587
1 4.48582 10.9512 10.588
1 5.27952 10.1575 10.588
1 5.25392 10.9367 9.80858
1 4.46683 10.1573 9.78625
1 6.07322 10.9512 10.588
1 6.86692 10.1575 10.588
1 6.83877 10.9397 9.76287
1 6.06524 10.1663 9.77699
1 7.5 9.36379 10.588
1 8.2937 8.57009 10.588
1 8.35053 9.36677 9.80706
1 7.55909 8.56427 9.76442
1 9.0874 9.36379 10.588
1 9.8811 8.57009 10.588
1 9.88685 9.36001 9.78481
1 9.11308 8.57957 9.79327
1 10.6748 9.36379 10.588
1 11.4685 8.57009 10.588
1 11.4835 9.36409 9.80904
1 10.6863 8.56279 9.77143
1 12.2622 9.36379 10.588
1 13.0559 8.57009 10.588
1 13.0576 9.35468 9.81152
1 12.2592 8.55674 9.82454
1 13.8496 9.36379 10.588
1 14.6433 8.57009 10.588
1 14.6518 9.33982 9.78738
1 13.8445 8.5663 9.80704
1 15.437 9.36379 10.588
1 16.2307 8.57009 10.588
1 16.2418 9.36812 9.79203
1 15.444 8.5572 9.81824
1 17.0244 9.36379 10.588
1 17.8181 8.57009 10.588
1 17.8186 9.36503 9.78492
1 17.067 8.56348 9.75949
1 18.6118 9.36379 10.588
1 19.4055 8.57009 10.588
1 19.4039 9.34918 9.79238
1 18.624 8.57585 9.74422
1 20.1992 9.36379 10.588
1 20.9929 8.57009 10.588
1 21.004 9.35975 9.79283
1 20.2298 8.59689 9.7929
1 21.7866 9.36379 10.588
1 22.5803 8.57009 10.588
1 22.5781 9.37099 9.76555
1 21.776 8.5956 9.78432
1 23.374 9.36379 10.588
1 24.1677 8.57009 10.588
1 24.156 9.36116 9.79076
1 23.3549 8.56299 9.7964
1 24.9614 9.36379 10.588
1 25.7551 8.57009 10.588
1 25.7594 9.34312 9.79747
1 24.9621 8.57216 9.81578
1 26.5488 9.36379 10.588
1 27.3425 8.57009 10.588
1 27.3417 9.38838 9.80433
1 26.5599 8.56511 9.78906
1 28.1362 9.36379 10.588
1 28.9299 8.57009 10.588
1 28.9224 9.36043 9.81135
1 28.1314 8.56399 9.81011
1 29.7236 9.36379 10.588
1 0.517315 8.57009 10.588
1 0.507058 9.3634 9.77722
1 29.7274 8.5846 9.80954
1 1.31102 9.36379 10.588
1 2.10472 8.57009 10.588
1 2.09477 9.36723 9.76894
1 1.30147 8.58719 9.79965
1 2.89842 9.36379 10.588
1 3.69212 8.57009 10.588
1 3.65945 9.38945 9.8062
1 2.87912 8.58508 9.78904
1 4.48582 9.36379 10.588
1 5.27952 8.57009 10.588
1 5.23795 9.36783 9.79101
1 4.4649 8.57373 9.7796
1 6.07322 9.36379 10.588
1 6.86692 8.57009 10.588
1 6.81673 9.35212 9.74763
1 6.03104 8.56928 9.7569
1 7.5 7.77639 10.588
1 8.2937 6.98268 10.588
1 8.33949 7.78694 9.76278
1 7.58183 6.98071 9.74294
1 9.0874 7.77639 10.588
1 9.8811 6.98268 10.588
1 9.88363 7.79064 9.79877
1 9.0756 6.99405 9.79358
1 10.6748 7.77639 10.588
1 11.4685 6.98268 10.588
1 11.4651 7.7859 9.79234
1 10.6732 7.01304 9.79784
1 12.2622 7.77639 10.588
1 13.0559 6.98268 10.588
1 13.0648 7.78541 9.79083
1 12.2747 7.00545 9.77701
1 13.8496 7.77639 10.588
1 14.6433 6.98268 10.588
1 14.6116 7.78141 9.7984
1 13.8166 6.97163 9.80378
1 15.437 7.77639 10.588
1 16.2307 6.98268 10.588
1 16.2096 7.76677 9.77659
1 15.4231 6.97145 9.75766
1 17.0244 7.77639 10.588
1 17.8181 6.98268 10.588
1 17.8441 7.7869 9.79285
1 17.0284 7.00466 9.78474
1 18.6118 7.77639 10.588
1 19.4055 6.98268 10.588
1 19.4198 7.77517 9.79703
1 18.6105 7.02414 9.7767
1 20.1992 7.77639 10.588
1 20.9929 6.98268 10.588
1 21.0093 7.78575 9.78097
1 20.2231 7.01225 9.80136
1 21.7866 7.77639 10.588
1 22.5803 6.98268 10.588
1 22.5297 7.77499 9.792
1 21.7527 6.98147 9.78395
1 23.374 7.77639 10.588
1 24.1677 6.98268 10.588
1 24.1484 7.75849 9.79993
1 23.3714 6.95154 9.78949
1 24.9614 7.77639 10.588
1 25.7551 6.98268 10.588
1 25.7587 7.77085 9.76137
1 24.9687 6.96785 9.7986
1 26.5488 7.77639 10.588
1 27.3425 6.98268 10.588
1 27.3354 7.78756 9.80212
1 26.5533 6.98008 9.79013
1 28.1362 7.77639 10.588
1 28.9299 6.98268 10.588
1 28.9466 7.77949 9.81237
1 28.1281 6.98199 9.79497
1 29.7236 7.77639 10.588
1 0.517315 6.98268 10.588
1 0.524294 7.78076 9.8047
1 29.7166 6.97422 9.8153
1 1.31102 7.77639 10.588
1 2.10472 6.98268 10.588
1 2.09612 7.80373 9.80604
1 1.29326 6.99203 9.78204
1 2.89842 7.77639 10.588
1 3.69212 6.98268 10.588
1 3.68004 7.78383 9.79115
1 2.88133 6.96683 9.78355
1 4.48582 7.77639 10.588
1 5.27952 6.98268 10.588
1 5.25417 7.7588 9.78871
1 4.45417 6.98003 9.76903
1 6.07322 7.77639 10.588
1 6.86692 6.98268 10.588
1 6.78558 7.77344 9.75977
1 6.03239 6.98442 9.79889
1 7.5 6.18898 10.588
1 8.2937 5.39528 10.588
1 8.33121 6.19383 9.78467
1 7.59046 5.40605 9.7775
1 9.0874 6.18898 10.588
1 9.8811 5.39528 10.588
1 9.87695 6.19521 9.79254
1 9.11027 5.39148 9.78384
1 10.6748 6.18898 10.588
1 11.4685 5.39528 10.588
1 11.4986 6.21701 9.79554
1 10.6743 5.37543 9.77532
1 12.2622 6.18898 10.588
1 13.0559 5.39528 10.588
1 13.0344 6.19141 9.82362
1 12.2603 5.41177 9.81263
1 13.8496 6.18898 10.588
1 14.6433 5.39528 10.588
1 14.6218 6.17238 9.78501
1 13.854 5.41535 9.7984
1 15.437 6.18898 10.588
1 16.2307 5.39528 10.588
1 16.2427 6.18987 9.78716
1 15.4496 5.41911 9.78518
1 17.0244 6.18898 10.588
1 17.8181 5.39528 10.588
1 17.7988 6.23005 9.77756
1 17.045 5.41517 9.78203
1 18.6118 6.18898 10.588
1 19.4055 5.39528 10.588
1 19.3917 6.21174 9.8016
1 18.6102 5.39886 9.80691
1 20.1992 6.18898 10.588
1 20.9929 5.39528 10.588
1 20.9821 6.16643 9.81257
1 20.1833 5.41091 9.78716
1 21.7866 6.18898 10.588
1 22.5803 5.39528 10.588
1 22.5564 6.18625 9.8033
1 21.7765 5.39966 9.79414
1 23.374 6.18898 10.588
1 24.1677 5.39528 10.588
1 24.1379 6.1989 9.7724
1 23.3617 5.3654 9.806
1 24.9614 6.18898 10.588
1 25.7551 5.39528 10.588
1 25.7342 6.20102 9.81343