9376
Atoms. Timestep: 4000000
1 30 3.55271e-15 11.708
1 0.793701 29.2063 11.708
1 0.823739 29.9422 10.8585
1 0.0662223 29.1736 10.8674
1 1.5874 3.55271e-15 11.708
1 2.3811 29.2063 11.708
1 2.40743 29.9398 10.9026
1 1.58056 29.1782 10.9221
1 3.1748 3.55271e-15 11.708
1 3.9685 29.2063 11.708
1 3.98229 29.9305 10.8896
1 3.2023 29.203 10.9057
1 4.7622 3.55271e-15 11.708
1 5.5559 29.2063 11.708
1 5.57011 29.9405 10.8476
1 4.76282 29.1881 10.8994
1 6.3496 3.55271e-15 11.708
1 7.1433 29.2063 11.708
1 7.11827 29.9376 10.8695
1 6.35948 29.147 10.9045
1 7.93701 3.55271e-15 11.708
1 8.73071 29.2063 11.708
1 8.7168 29.9049 10.8872
1 7.92852 29.1662 10.9025
1 9.52441 3.55271e-15 11.708
1 10.3181 29.2063 11.708
1 10.3099 29.9083 10.8813
1 9.53114 29.1787 10.9155
1 11.1118 3.55271e-15 11.708
1 11.9055 29.2063 11.708
1 11.9191 29.9425 10.878
1 11.111 29.1677 10.9301
1 12.6992 3.55271e-15 11.708
1 13.4929 29.2063 11.708
1 13.4804 29.928 10.8784
1 12.7061 29.1777 10.8887
1 14.2866 3.55271e-15 11.708
1 15.0803 29.2063 11.708
1 15.0476 29.9436 10.8903
1 14.2866 29.19 10.9133
1 15.874 3.55271e-15 11.708
1 16.6677 29.2063 11.708
1 16.6559 29.9338 10.8522
1 15.8745 29.1911 10.9208
1 17.4614 3.55271e-15 11.708
1 18.2551 29.2063 11.708
1 18.2573 29.9271 10.8746
1 17.4428 29.1866 10.9154
1 19.0488 3.55271e-15 11.708
1 19.8425 29.2063 11.708
1 19.8287 29.9365 10.8728
1 19.0804 29.1451 10.9014
1 20.6362 3.55271e-15 11.708
1 21.4299 29.2063 11.708
1 21.4194 29.9195 10.9022
1 20.6396 29.1891 10.9007
1 22.2236 3.55271e-15 11.708
1 23.0173 29.2063 11.708
1 23.0266 29.9327 10.8884
1 22.2277 29.1801 10.8954
1 23.811 3.55271e-15 11.708
1 24.6047 29.2063 11.708
1 24.6081 29.928 10.8871
1 23.7975 29.1856 10.9299
1 25.3984 3.55271e-15 11.708
1 26.1921 29.2063 11.708
1 26.1954 29.938 10.88
1 25.4043 29.1744 10.8981
1 26.9858 3.55271e-15 11.708
1 27.7795 29.2063 11.708
1 27.7911 29.919 10.8798
1 26.9822 29.1822 10.9159
1 28.5732 3.55271e-15 11.708
1 29.3669 29.2063 11.708
1 29.3137 29.9282 10.8696
1 28.5529 29.1318 10.8824
1 30 28.4126 11.708
1 0.793701 27.6189 11.708
1 0.797636 28.3842 10.9059
1 0.0681344 27.596 10.8754
1 1.5874 28.4126 11.708
1 2.3811 27.6189 11.708
1 2.38153 28.4214 10.9258
1 1.59692 27.6149 10.9071
1 3.1748 28.4126 11.708
1 3.9685 27.6189 11.708
1 3.95885 28.3956 10.8995
1 3.1703 27.6338 10.9191
1 4.7622 28.4126 11.708
1 5.5559 27.6189 11.708
1 5.55773 28.3981 10.9125
1 4.77806 27.6384 10.8983
1 6.3496 28.4126 11.708
1 7.1433 27.6189 11.708
1 7.13694 28.3865 10.8961
1 6.34222 27.6328 10.9071
1 7.93701 28.4126 11.708
1 8.73071 27.6189 11.708
1 8.75563 28.3825 10.8979
1 7.94099 27.633 10.9165
1 9.52441 28.4126 11.708
1 10.3181 27.6189 11.708
1 10.337 28.4121 10.9098
1 9.54884 27.5927 10.8952
1 11.1118 28.4126 11.708
1 11.9055 27.6189 11.708
1 11.914 28.4002 10.9131
1 11.108 27.6112 10.9006
1 12.6992 28.4126 11.708
1 13.4929 27.6189 11.708
1 13.5048 28.3761 10.9099
1 12.7194 27.6215 10.9004
1 14.2866 28.4126 11.708
1 15.0803 27.6189 11.708
1 15.0724 28.4078 10.9168
1 14.2925 27.5874 10.9248
1 15.874 28.4126 11.708
1 16.6677 27.6189 11.708
1 16.6626 28.3866 10.9181
1 15.8655 27.6192 10.9113
1 17.4614 28.4126 11.708
1 18.2551 27.6189 11.708
1 18.2672 28.3883 10.9092
1 17.4521 27.5937 10.9064
1 19.0488 28.4126 11.708
1 19.8425 27.6189 11.708
1 19.8498 28.3862 10.9159
1 19.0665 27.6239 10.9085
1 20.6362 28.4126 11.708
1 21.4299 27.6189 11.708
1 21.4344 28.386 10.9385
1 20.6502 27.6113 10.9282
1 22.2236 28.4126 11.708
1 23.0173 27.6189 11.708
1 23.0093 28.3982 10.9315
1 22.2076 27.6021 10.9089
1 23.811 28.4126 11.708
1 24.6047 27.6189 11.708
1 24.5969 28.3976 10.8895
1 23.8146 27.604 10.9166
1 25.3984 28.4126 11.708
1 26.1921 27.6189 11.708
1 26.1891 28.3788 10.9103
1 25.3747 27.6076 10.9146
1 26.9858 28.4126 11.708
1 27.7795 27.6189 11.708
1 27.7447 28.3734 10.9253
1 26.9791 27.6014 10.906
1 28.5732 28.4126 11.708
1 29.3669 27.6189 11.708
1 29.327 28.396 10.8691
1 28.5406 27.6236 10.908
1 30 26.8252 11.708
1 0.793701 26.0315 11.708
1 0.825374 26.8069 10.9158
1 0.063774 26.0341 10.864
1 1.5874 26.8252 11.708
1 2.3811 26.0315 11.708
1 2.384 26.7854 10.9053
1 1.60548 26.0075 10.9297
1 3.1748 26.8252 11.708
1 3.9685 26.0315 11.708
1 3.98357 26.8165 10.9103
1 3.20862 26.0094 10.8903
1 4.7622 26.8252 11.708
1 5.5559 26.0315 11.708
1 5.53474 26.8216 10.9103
1 4.75566 26.0121 10.9041
1 6.3496 26.8252 11.708
1 7.1433 26.0315 11.708
1 7.14689 26.8349 10.9108
1 6.32612 26.032 10.9189
1 7.93701 26.8252 11.708
1 8.73071 26.0315 11.708
1 8.73502 26.8211 10.9336
1 7.93524 26.0319 10.9098
1 9.52441 26.8252 11.708
1 10.3181 26.0315 11.708
1 10.3398 26.8251 10.9119
1 9.52448 26.0428 10.909
1 11.1118 26.8252 11.708
1 11.9055 26.0315 11.708
1 11.9186 26.8188 10.9019
1 11.1153 26.0216 10.9043
1 12.6992 26.8252 11.708
1 13.4929 26.0315 11.708
1 13.4874 26.8402 10.924
1 12.6748 26.0365 10.9185
1 14.2866 26.8252 11.708
1 15.0803 26.0315 11.708
1 15.0735 26.8342 10.9216
1 14.283 26.0503 10.9067
1 15.874 26.8252 11.708
1 16.6677 26.0315 11.708
1 16.6708 26.8138 10.9144
1 15.8485 26.0415 10.9102
1 17.4614 26.8252 11.708
1 18.2551 26.0315 11.708
1 18.2758 26.8048 10.9366
1 17.4554 26.0459 10.9127
1 19.0488 26.8252 11.708
1 19.8425 26.0315 11.708
1 19.8456 26.8086 10.9205
1 19.0499 26.0359 10.9229
1 20.6362 26.8252 11.708
1 21.4299 26.0315 11.708
1 21.4353 26.7996 10.8977
1 20.663 26.0301 10.9254
1 22.2236 26.8252 11.708
1 23.0173 26.0315 11.708
1 23.0241 26.8266 10.9033
1 22.2476 26.0276 10.8867
1 23.811 26.8252 11.708
1 24.6047 26.0315 11.708
1 24.5972 26.7904 10.9195
1 23.8129 26.0368 10.8991
1 25.3984 26.8252 11.708
1 26.1921 26.0315 11.708
1 26.1681 26.8467 10.9127
1 25.4014 26.0271 10.9111
1 26.9858 26.8252 11.708
1 27.7795 26.0315 11.708
1 27.7566 26.8285 10.8969
1 26.9615 26.0108 10.9203
1 28.5732 26.8252 11.708
1 29.3669 26.0315 11.708
1 29.3147 26.8222 10.8796
1 28.5482 26.034 10.923
1 30 25.2378 11.708
1 0.793701 24.4441 11.708
1 0.823947 25.226 10.9017
1 0.0831009 24.4384 10.8525
1 1.5874 25.2378 11.708
1 2.3811 24.4441 11.708
1 2.4168 25.227 10.9191
1 1.61457 24.4499 10.9172
1 3.1748 25.2378 11.708
1 3.9685 24.4441 11.708
1 4.00095 25.2114 10.9105
1 3.1913 24.4177 10.8929
1 4.7622 25.2378 11.708
1 5.5559 24.4441 11.708
1 5.53539 25.2405 10.9304
1 4.76524 24.4626 10.9132
1 6.3496 25.2378 11.708
1 7.1433 24.4441 11.708
1 7.13263 25.2389 10.9172
1 6.3725 24.4105 10.9069
1 7.93701 25.2378 11.708
1 8.73071 24.4441 11.708
1 8.75479 25.2348 10.9087
1 7.9402 24.4469 10.9392
1 9.52441 25.2378 11.708
1 10.3181 24.4441 11.708
1 10.3245 25.2405 10.895
1 9.53149 24.4704 10.9133
1 11.1118 25.2378 11.708
1 11.9055 24.4441 11.708
1 11.8867 25.2467 10.8974
1 11.0978 24.437 10.8928
1 12.6992 25.2378 11.708
1 13.4929 24.4441 11.708
1 13.5118 25.2539 10.9202
1 12.6879 24.4419 10.9173
1 14.2866 25.2378 11.708
1 15.0803 24.4441 11.708
1 15.0714 25.2514 10.9128
1 14.2802 24.4621 10.9013
1 15.874 25.2378 11.708
1 16.6677 24.4441 11.708
1 16.6691 25.2408 10.9047
1 15.8744 24.4515 10.9172
1 17.4614 25.2378 11.708
1 18.2551 24.4441 11.708
1 18.2767 25.2442 10.8991
1 17.4579 24.4352 10.8919
1 19.0488 25.2378 11.708
1 19.8425 24.4441 11.708
1 19.8516 25.2029 10.92
1 19.0481 24.4458 10.9262
1 20.6362 25.2378 11.708
1 21.4299 24.4441 11.708
1 21.4106 25.2093 10.8852
1 20.672 24.4281 10.9241
1 22.2236 25.2378 11.708
1 23.0173 24.4441 11.708
1 23.0266 25.2434 10.9138
1 22.2138 24.4608 10.9072
1 23.811 25.2378 11.708
1 24.6047 24.4441 11.708
1 24.6206 25.2199 10.9076
1 23.8031 24.4473 10.9152
1 25.3984 25.2378 11.708
1 26.1921 24.4441 11.708
1 26.1598 25.2296 10.9133
1 25.3832 24.448 10.9178
1 26.9858 25.2378 11.708
1 27.7795 24.4441 11.708
1 27.7406 25.2264 10.9168
1 26.9784 24.4503 10.9339
1 28.5732 25.2378 11.708
1 29.3669 24.4441 11.708
1 29.3068 25.218 10.8771
1 28.5428 24.4654 10.9121
1 30 23.6504 11.708
1 0.793701 22.8567 11.708
1 0.825564 23.6349 10.9154
1 0.0480139 22.8752 10.8773
1 1.5874 23.6504 11.708
1 2.3811 22.8567 11.708
1 2.41641 23.6417 10.9205
1 1.58952 22.8521 10.9013
1 3.1748 23.6504 11.708
1 3.9685 22.8567 11.708
1 3.97073 23.6398 10.9246
1 3.15117 22.8485 10.9083
1 4.7622 23.6504 11.708
1 5.5559 22.8567 11.708
1 5.52791 23.6316 10.9225
1 4.76411 22.8339 10.9067
1 6.3496 23.6504 11.708
1 7.1433 22.8567 11.708
1 7.18014 23.6724 10.9111
1 6.36188 22.8641 10.9188
1 7.93701 23.6504 11.708
1 8.73071 22.8567 11.708
1 8.73133 23.6536 10.9138
1 7.93515 22.8732 10.9532
1 9.52441 23.6504 11.708
1 10.3181 22.8567 11.708
1 10.3253 23.6651 10.8793
1 9.53435 22.8767 10.8769
1 11.1118 23.6504 11.708
1 11.9055 22.8567 11.708
1 11.8905 23.6446 10.901
1 11.0924 22.8637 10.9167
1 12.6992 23.6504 11.708
1 13.4929 22.8567 11.708
1 13.4865 23.6218 10.9297
1 12.6954 22.8742 10.8944
1 14.2866 23.6504 11.708
1 15.0803 22.8567 11.708
1 15.0897 23.6543 10.9167
1 14.2922 22.8692 10.8998
1 15.874 23.6504 11.708
1 16.6677 22.8567 11.708
1 16.6821 23.6335 10.8919
1 15.8703 22.8721 10.8989
1 17.4614 23.6504 11.708
1 18.2551 22.8567 11.708
1 18.252 23.6292 10.9235
1 17.4627 22.8232 10.9244
1 19.0488 23.6504 11.708
1 19.8425 22.8567 11.708
1 19.8722 23.6458 10.8897
1 19.0545 22.8311 10.9354
1 20.6362 23.6504 11.708
1 21.4299 22.8567 11.708
1 21.4573 23.6071 10.9207
1 20.6502 22.8581 10.9045
1 22.2236 23.6504 11.708
1 23.0173 22.8567 11.708
1 23.0162 23.6586 10.9344
1 22.219 22.8624 10.9077
1 23.811 23.6504 11.708
1 24.6047 22.8567 11.708
1 24.6097 23.6344 10.9258
1 23.8009 22.8865 10.9192
1 25.3984 23.6504 11.708
1 26.1921 22.8567 11.708
1 26.1936 23.6434 10.9237
1 25.3943 22.8707 10.9248
1 26.9858 23.6504 11.708
1 27.7795 22.8567 11.708
1 27.7656 23.6672 10.9186
1 26.9908 22.8641 10.9096
1 28.5732 23.6504 11.708
1 29.3669 22.8567 11.708
1 29.2934 23.65 10.9014
1 28.5211 22.8915 10.9227
1 30 22.063 11.708
1 0.793701 21.2693 11.708
1 0.7902 22.0923 10.9245
1 0.0646179 21.2684 10.8845
1 1.5874 22.063 11.708
1 2.3811 21.2693 11.708
1 2.36708 22.0562 10.9177
1 1.58491 21.2709 10.8896
1 3.1748 22.063 11.708
1 3.9685 21.2693 11.708
1 3.95302 22.0876 10.9353
1 3.18837 21.306 10.9114
1 4.7622 22.063 11.708
1 5.5559 21.2693 11.708
1 5.56702 22.0571 10.9196
1 4.76342 21.2837 10.9238
1 6.3496 22.063 11.708
1 7.1433 21.2693 11.708
1 7.1674 22.0202 10.9014
1 6.3483 21.2497 10.9134
1 7.93701 22.063 11.708
1 8.73071 21.2693 11.708
1 8.74167 22.0931 10.9221
1 7.92469 21.2441 10.909
1 9.52441 22.063 11.708
1 10.3181 21.2693 11.708
1 10.3341 22.0588 10.8926
1 9.49499 21.2744 10.8929
1 11.1118 22.063 11.708
1 11.9055 21.2693 11.708
1 11.8936 22.0709 10.9067
1 11.1056 21.2686 10.8803
1 12.6992 22.063 11.708
1 13.4929 21.2693 11.708
1 13.4665 22.0683 10.929
1 12.7009 21.2948 10.9198
1 14.2866 22.063 11.708
1 15.0803 21.2693 11.708
1 15.0722 22.0478 10.8995
1 14.2723 21.2654 10.9123
1 15.874 22.063 11.708
1 16.6677 21.2693 11.708
1 16.6769 22.0688 10.9092
1 15.886 21.2595 10.8882
1 17.4614 22.063 11.708
1 18.2551 21.2693 11.708
1 18.2696 22.0625 10.9039
1 17.4821 21.2613 10.9057
1 19.0488 22.063 11.708
1 19.8425 21.2693 11.708
1 19.8422 22.0442 10.9242
1 19.0335 21.2668 10.8988
1 20.6362 22.063 11.708
1 21.4299 21.2693 11.708
1 21.4362 22.0924 10.8915
1 20.6445 21.2751 10.9239
1 22.2236 22.063 11.708
1 23.0173 21.2693 11.708
1 23.033 22.0611 10.9248
1 22.2041 21.2903 10.8973
1 23.811 22.063 11.708
1 24.6047 21.2693 11.708
1 24.6043 22.0611 10.9119
1 23.8022 21.2645 10.9366
1 25.3984 22.063 11.708
1 26.1921 21.2693 11.708
1 26.1894 22.0423 10.9125
1 25.381 21.2779 10.9058
1 26.9858 22.063 11.708
1 27.7795 21.2693 11.708
1 27.757 22.0737 10.8817
1 26.9883 21.2798 10.9459
1 28.5732 22.063 11.708
1 29.3669 21.2693 11.708
1 29.3158 22.0727 10.8588
1 28.5509 21.2679 10.8953
1 30 20.4756 11.708
1 0.793701 19.6819 11.708
1 0.810034 20.4786 10.9019
1 0.0603256 19.671 10.8722
1 1.5874 20.4756 11.708
1 2.3811 19.6819 11.708
1 2.40902 20.4872 10.9106
1 1.61996 19.6965 10.9132
1 3.1748 20.4756 11.708
1 3.9685 19.6819 11.708
1 3.96533 20.4734 10.9436
1 3.18889 19.6606 10.9333
1 4.7622 20.4756 11.708
1 5.5559 19.6819 11.708
1 5.54564 20.483 10.9355
1 4.76665 19.6585 10.9172
1 6.3496 20.4756 11.708
1 7.1433 19.6819 11.708
1 7.10912 20.4587 10.9037
1 6.32797 19.6856 10.9023
1 7.93701 20.4756 11.708
1 8.73071 19.6819 11.708
1 8.73904 20.4773 10.8957
1 7.94184 19.6973 10.909
1 9.52441 20.4756 11.708
1 10.3181 19.6819 11.708
1 10.2952 20.4876 10.9177
1 9.51675 19.712 10.9057
1 11.1118 20.4756 11.708
1 11.9055 19.6819 11.708
1 11.9203 20.4916 10.903
1 11.1063 19.7083 10.9136
1 12.6992 20.4756 11.708
1 13.4929 19.6819 11.708
1 13.4819 20.5008 10.9367
1 12.6847 19.6961 10.904
1 14.2866 20.4756 11.708
1 15.0803 19.6819 11.708
1 15.056 20.4745 10.9133
1 14.2578 19.6892 10.9215
1 15.874 20.4756 11.708
1 16.6677 19.6819 11.708
1 16.6678 20.4863 10.9331
1 15.8628 19.687 10.9151
1 17.4614 20.4756 11.708
1 18.2551 19.6819 11.708
1 18.2828 20.468 10.8968
1 17.4673 19.6839 10.9018
1 19.0488 20.4756 11.708
1 19.8425 19.6819 11.708
1 19.8365 20.4776 10.9124
1 19.0484 19.6904 10.9069
1 20.6362 20.4756 11.708
1 21.4299 19.6819 11.708
1 21.4414 20.4608 10.9209
1 20.6351 19.68 10.9124
1 22.2236 20.4756 11.708
1 23.0173 19.6819 11.708
1 23.0096 20.4681 10.9088
1 22.2087 19.6652 10.8969
1 23.811 20.4756 11.708
1 24.6047 19.6819 11.708
1 24.6045 20.4788 10.9366
1 23.7861 19.6943 10.928
1 25.3984 20.4756 11.708
1 26.1921 19.6819 11.708
1 26.1808 20.4737 10.9204
1 25.4051 19.6848 10.9367
1 26.9858 20.4756 11.708
1 27.7795 19.6819 11.708
1 27.7577 20.452 10.926
1 26.9513 19.685 10.9163
1 28.5732 20.4756 11.708
1 29.3669 19.6819 11.708
1 29.3015 20.4602 10.8759
1 28.5661 19.6772 10.9262
1 30 18.8882 11.708
1 0.793701 18.0945 11.708
1 0.843729 18.8964 10.898
1 0.0816001 18.0859 10.8652
1 1.5874 18.8882 11.708
1 2.3811 18.0945 11.708
1 2.38896 18.8745 10.9372
1 1.59863 18.0799 10.898
1 3.1748 18.8882 11.708
1 3.9685 18.0945 11.708
1 3.98394 18.8873 10.9154
1 3.19327 18.0809 10.9209
1 4.7622 18.8882 11.708
1 5.5559 18.0945 11.708
1 5.57126 18.8707 10.903
1 4.77074 18.113 10.9129
1 6.3496 18.8882 11.708
1 7.1433 18.0945 11.708
1 7.16392 18.9011 10.9145
1 6.37748 18.0861 10.9094
1 7.93701 18.8882 11.708
1 8.73071 18.0945 11.708
1 8.74906 18.9 10.9015
1 7.93953 18.1403 10.9079
1 9.52441 18.8882 11.708
1 10.3181 18.0945 11.708
1 10.3193 18.8975 10.9188
1 9.53322 18.1006 10.939
1 11.1118 18.8882 11.708
1 11.9055 18.0945 11.708
1 11.9026 18.904 10.9161
1 11.1252 18.1011 10.9094
1 12.6992 18.8882 11.708
1 13.4929 18.0945 11.708
1 13.4692 18.8903 10.9036
1 12.6812 18.1065 10.9263
1 14.2866 18.8882 11.708
1 15.0803 18.0945 11.708
1 15.0893 18.8912 10.8971
1 14.2863 18.0878 10.9219
1 15.874 18.8882 11.708
1 16.6677 18.0945 11.708
1 16.6584 18.8643 10.9151
1 15.8695 18.0956 10.9288
1 17.4614 18.8882 11.708
1 18.2551 18.0945 11.708
1 18.2348 18.8805 10.9191
1 17.4446 18.0752 10.9165
1 19.0488 18.8882 11.708
1 19.8425 18.0945 11.708
1 19.8173 18.8798 10.9277
1 19.0639 18.0738 10.9024
1 20.6362 18.8882 11.708
1 21.4299 18.0945 11.708
1 21.4218 18.8848 10.9092
1 20.6483 18.1099 10.9027
1 22.2236 18.8882 11.708
1 23.0173 18.0945 11.708
1 23.0195 18.9017 10.9268
1 22.2217 18.0884 10.8829
1 23.811 18.8882 11.708
1 24.6047 18.0945 11.708
1 24.5961 18.8966 10.922
1 23.7953 18.1173 10.9185
1 25.3984 18.8882 11.708
1 26.1921 18.0945 11.708
1 26.1981 18.8835 10.9111
1 25.4179 18.109 10.9047
1 26.9858 18.8882 11.708
1 27.7795 18.0945 11.708
1 27.7595 18.8867 10.9308
1 26.976 18.091 10.9033
1 28.5732 18.8882 11.708
1 29.3669 18.0945 11.708
1 29.3109 18.8834 10.8946
1 28.5354 18.0975 10.9167
1 30 17.3008 11.708
1 0.793701 16.5071 11.708
1 0.808436 17.2908 10.903
1 0.0536478 16.4957 10.8611
1 1.5874 17.3008 11.708
1 2.3811 16.5071 11.708
1 2.38596 17.3009 10.9148
1 1.58365 16.4862 10.9072
1 3.1748 17.3008 11.708
1 3.9685 16.5071 11.708
1 4.02938 17.3169 10.9224
1 3.21303 16.5271 10.9319
1 4.7622 17.3008 11.708
1 5.5559 16.5071 11.708
1 5.58206 17.2988 10.9436
1 4.77939 16.5182 10.9098
1 6.3496 17.3008 11.708
1 7.1433 16.5071 11.708
1 7.16853 17.3125 10.9255
1 6.35946 16.4989 10.9249
1 7.93701 17.3008 11.708
1 8.73071 16.5071 11.708
1 8.72646 17.2985 10.9134
1 7.97186 16.5303 10.9108
1 9.52441 17.3008 11.708
1 10.3181 16.5071 11.708
1 10.3316 17.3079 10.9286
1 9.52315 16.5187 10.9343
1 11.1118 17.3008 11.708
1 11.9055 16.5071 11.708
1 11.8456 17.2847 10.929
1 11.0997 16.49 10.8995
1 12.6992 17.3008 11.708
1 13.4929 16.5071 11.708
1 13.4992 17.2696 10.9025
1 12.6833 16.5139 10.9162
1 14.2866 17.3008 11.708
1 15.0803 16.5071 11.708
1 15.0992 17.3049 10.913
1 14.2924 16.5036 10.9079
1 15.874 17.3008 11.708
1 16.6677 16.5071 11.708
1 16.6567 17.2908 10.9373
1 15.8744 16.5041 10.9296
1 17.4614 17.3008 11.708
1 18.2551 16.5071 11.708
1 18.2347 17.2992 10.9488
1 17.4554 16.4932 10.924
1 19.0488 17.3008 11.708
1 19.8425 16.5071 11.708
1 19.8604 17.2903 10.9192
1 19.0233 16.5122 10.9236
1 20.6362 17.3008 11.708
1 21.4299 16.5071 11.708
1 21.4201 17.2914 10.9057
1 20.6521 16.4879 10.9213
1 22.2236 17.3008 11.708
1 23.0173 16.5071 11.708
1 23.0278 17.3174 10.914
1 22.2554 16.5172 10.9286
1 23.811 17.3008 11.708
1 24.6047 16.5071 11.708
1 24.6015 17.2948 10.9246
1 23.8173 16.5021 10.9073
1 25.3984 17.3008 11.708
1 26.1921 16.5071 11.708
1 26.196 17.3107 10.9048
1 25.3784 16.5061 10.9122
1 26.9858 17.3008 11.708
1 27.7795 16.5071 11.708
1 27.751 17.3081 10.901
1 26.9931 16.4929 10.8941
1 28.5732 17.3008 11.708
1 29.3669 16.5071 11.708
1 29.2844 17.3161 10.8784
1 28.5314 16.5258 10.8927
1 30 15.7134 11.708
1 0.793701 14.9197 11.708
1 0.816684 15.7106 10.9259
1 0.0550418 14.9166 10.8841
1 1.5874 15.7134 11.708
1 2.3811 14.9197 11.708
1 2.37899 15.7055 10.9384
1 1.57935 14.8882 10.9291
1 3.1748 15.7134 11.708
1 3.9685 14.9197 11.708
1 4.00452 15.7237 10.9238
1 3.20442 14.9166 10.9532
1 4.7622 15.7134 11.708
1 5.5559 14.9197 11.708
1 5.58324 15.7229 10.9173
1 4.78665 14.9398 10.9068
1 6.3496 15.7134 11.708
1 7.1433 14.9197 11.708
1 7.16557 15.7252 10.895
1 6.34866 14.9242 10.8907
1 7.93701 15.7134 11.708
1 8.73071 14.9197 11.708
1 8.688 15.6912 10.9179
1 7.95277 14.934 10.919
1 9.52441 15.7134 11.708
1 10.3181 14.9197 11.708
1 10.3189 15.6986 10.9266
1 9.5008 14.9119 10.9364
1 11.1118 15.7134 11.708
1 11.9055 14.9197 11.708
1 11.9061 15.7172 10.9252
1 11.1271 14.903 10.9178
1 12.6992 15.7134 11.708
1 13.4929 14.9197 11.708
1 13.4881 15.7249 10.912
1 12.7047 14.9387 10.9386
1 14.2866 15.7134 11.708
1 15.0803 14.9197 11.708
1 15.0804 15.7009 10.9282
1 14.2963 14.919 10.9279
1 15.874 15.7134 11.708
1 16.6677 14.9197 11.708
1 16.6422 15.7038 10.93
1 15.8701 14.9121 10.9302
1 17.4614 15.7134 11.708
1 18.2551 14.9197 11.708
1 18.2567 15.6875 10.8831
1 17.4684 14.9363 10.9369
1 19.0488 15.7134 11.708
1 19.8425 14.9197 11.708
1 19.8157 15.7215 10.9222
1 19.0722 14.9348 10.924
1 20.6362 15.7134 11.708
1 21.4299 14.9197 11.708
1 21.4296 15.7119 10.9201
1 20.6019 14.9207 10.9226
1 22.2236 15.7134 11.708
1 23.0173 14.9197 11.708
1 23.0253 15.7201 10.9306
1 22.2248 14.9286 10.9239
1 23.811 15.7134 11.708
1 24.6047 14.9197 11.708
1 24.6028 15.7212 10.9026
1 23.8272 14.9239 10.9114
1 25.3984 15.7134 11.708
1 26.1921 14.9197 11.708
1 26.1743 15.7292 10.8988
1 25.3707 14.9098 10.917
1 26.9858 15.7134 11.708
1 27.7795 14.9197 11.708
1 27.76 15.7115 10.9171
1 26.9744 14.8874 10.9462
1 28.5732 15.7134 11.708
1 29.3669 14.9197 11.708
1 29.2964 15.719 10.878
1 28.5571 14.9293 10.9096
1 30 14.126 11.708
1 0.793701 13.3323 11.708
1 0.81673 14.1085 10.8862
1 0.0562026 13.3508 10.877
1 1.5874 14.126 11.708
1 2.3811 13.3323 11.708
1 2.41593 14.1377 10.9185
1 1.61991 13.3579 10.924
1 3.1748 14.126 11.708
1 3.9685 13.3323 11.708
1 4.00687 14.1436 10.892
1 3.20315 13.3379 10.9124
1 4.7622 14.126 11.708
1 5.5559 13.3323 11.708
1 5.5583 14.1288 10.9295
1 4.79083 13.3527 10.8981
1 6.3496 14.126 11.708
1 7.1433 13.3323 11.708
1 7.12295 14.1426 10.9074
1 6.36846 13.3331 10.9123
1 7.93701 14.126 11.708
1 8.73071 13.3323 11.708
1 8.70153 14.139 10.9244
1 7.95078 13.3403 10.9279
1 9.52441 14.126 11.708
1 10.3181 13.3323 11.708
1 10.3141 14.1479 10.9294
1 9.5221 13.3582 10.92
1 11.1118 14.126 11.708
1 11.9055 13.3323 11.708
1 11.8868 14.1327 10.926
1 11.1175 13.3443 10.9122
1 12.6992 14.126 11.708
1 13.4929 13.3323 11.708
1 13.4768 14.1323 10.9191
1 12.6954 13.3352 10.9135
1 14.2866 14.126 11.708
1 15.0803 13.3323 11.708
1 15.0738 14.1055 10.9079
1 14.2733 13.3214 10.9238
1 15.874 14.126 11.708
1 16.6677 13.3323 11.708
1 16.6722 14.1311 10.9204
1 15.8736 13.321 10.8914
1 17.4614 14.126 11.708
1 18.2551 13.3323 11.708
1 18.2712 14.1407 10.8935
1 17.4518 13.3287 10.8832
1 19.0488 14.126 11.708
1 19.8425 13.3323 11.708
1 19.8489 14.1074 10.9164
1 19.0491 13.3313 10.9254
1 20.6362 14.126 11.708
1 21.4299 13.3323 11.708
1 21.4238 14.1289 10.9224
1 20.6297 13.3404 10.9085
1 22.2236 14.126 11.708
1 23.0173 13.3323 11.708
1 23.0303 14.1469 10.901
1 22.2277 13.3412 10.8925
1 23.811 14.126 11.708
1 24.6047 13.3323 11.708
1 24.6096 14.103 10.8823
1 23.8011 13.3566 10.9232
1 25.3984 14.126 11.708
1 26.1921 13.3323 11.708
1 26.1718 14.1227 10.9163
1 25.4009 13.3279 10.9295
1 26.9858 14.126 11.708
1 27.7795 13.3323 11.708
1 27.7566 14.12 10.8879
1 26.9534 13.3401 10.9134
1 28.5732 14.126 11.708
1 29.3669 13.3323 11.708
1 29.2771 14.1354 10.8723
1 28.5304 13.349 10.8819
1 30 12.5386 11.708
1 0.793701 11.7449 11.708
1 0.830843 12.5582 10.8932
1 0.0583526 11.7359 10.8862
1 1.5874 12.5386 11.708
1 2.3811 11.7449 11.708
1 2.38472 12.5581 10.923
1 1.59829 11.745 10.9007
1 3.1748 12.5386 11.708
1 3.9685 11.7449 11.708
1 3.97281 12.5488 10.9186
1 3.19308 11.7264 10.9212
1 4.7622 12.5386 11.708
1 5.5559 11.7449 11.708
1 5.55264 12.5385 10.9022
1 4.76197 11.7388 10.9365
1 6.3496 12.5386 11.708
1 7.1433 11.7449 11.708
1 7.12927 12.5395 10.9009
1 6.35347 11.7482 10.9006
1 7.93701 12.5386 11.708
1 8.73071 11.7449 11.708
1 8.71587 12.5492 10.8944
1 7.92844 11.727 10.9216
1 9.52441 12.5386 11.708
1 10.3181 11.7449 11.708
1 10.3101 12.5406 10.9154
1 9.52207 11.7837 10.9134
1 11.1118 12.5386 11.708
1 11.9055 11.7449 11.708
1 11.934 12.5482 10.9109
1 11.1113 11.7457 10.9267
1 12.6992 12.5386 11.708
1 13.4929 11.7449 11.708
1 13.4772 12.5231 10.9198
1 12.697 11.7368 10.9218
1 14.2866 12.5386 11.708
1 15.0803 11.7449 11.708
1 15.0919 12.5449 10.8963
1 14.2902 11.7572 10.9369
1 15.874 12.5386 11.708
1 16.6677 11.7449 11.708
1 16.6645 12.5414 10.9165
1 15.8919 11.7375 10.9006
1 17.4614 12.5386 11.708
1 18.2551 11.7449 11.708
1 18.2473 12.5637 10.9149
1 17.4639 11.7519 10.9247
1 19.0488 12.5386 11.708
1 19.8425 11.7449 11.708
1 19.8403 12.5351 10.9038
1 19.0585 11.7404 10.9213
1 20.6362 12.5386 11.708
1 21.4299 11.7449 11.708
1 21.4432 12.5512 10.9118
1 20.6521 11.7415 10.9014
1 22.2236 12.5386 11.708
1 23.0173 11.7449 11.708
1 22.9972 12.5465 10.9329
1 22.2501 11.7449 10.9202
1 23.811 12.5386 11.708
1 24.6047 11.7449 11.708
1 24.6155 12.5451 10.9113
1 23.8065 11.7379 10.9355
1 25.3984 12.5386 11.708
1 26.1921 11.7449 11.708
1 26.1564 12.56 10.9012
1 25.3841 11.7481 10.9102
1 26.9858 12.5386 11.708
1 27.7795 11.7449 11.708
1 27.7378 12.5284 10.8998
1 26.9659 11.7339 10.9055
1 28.5732 12.5386 11.708
1 29.3669 11.7449 11.708
1 29.303 12.5142 10.8923
1 28.5381 11.7489 10.9107
1 30 10.9512 11.708
1 0.793701 10.1575 11.708
1 0.826157 10.9352 10.9126
1 0.0606406 10.1714 10.9003
1 1.5874 10.9512 11.708
1 2.3811 10.1575 11.708
1 2.39008 10.9438 10.9173
1 1.59299 10.1567 10.9267
1 3.1748 10.9512 11.708
1 3.9685 10.1575 11.708
1 3.95878 10.9323 10.897
1 3.19706 10.1902 10.879
1 4.7622 10.9512 11.708
1 5.5559 10.1575 11.708
1 5.5537 10.9733 10.9117
1 4.76148 10.1672 10.9047
1 6.3496 10.9512 11.708
1 7.1433 10.1575 11.708
1 7.14244 10.914 10.9192
1 6.32843 10.1488 10.8933
1 7.93701 10.9512 11.708
1 8.73071 10.1575 11.708
1 8.74111 10.9479 10.924
1 7.94317 10.1485 10.8813
1 9.52441 10.9512 11.708
1 10.3181 10.1575 11.708
1 10.3238 10.936 10.9095
1 9.54551 10.1402 10.8994
1 11.1118 10.9512 11.708
1 11.9055 10.1575 11.708
1 11.8833 10.953 10.9325
1 11.1209 10.1672 10.9068
1 12.6992 10.9512 11.708
1 13.4929 10.1575 11.708
1 13.5052 10.9422 10.9092
1 12.695 10.1534 10.9124
1 14.2866 10.9512 11.708
1 15.0803 10.1575 11.708
1 15.0683 10.9302 10.8953
1 14.2877 10.1318 10.8989
1 15.874 10.9512 11.708
1 16.6677 10.1575 11.708
1 16.6681 10.9627 10.9088
1 15.8575 10.1575 10.9296
1 17.4614 10.9512 11.708
1 18.2551 10.1575 11.708
1 18.2815 10.9395 10.9315
1 17.4281 10.1513 10.904
1 19.0488 10.9512 11.708
1 19.8425 10.1575 11.708
1 19.8405 10.9471 10.9183
1 19.0642 10.1365 10.932
1 20.6362 10.9512 11.708
1 21.4299 10.1575 11.708
1 21.4119 10.9497 10.9198
1 20.633 10.1638 10.9046
1 22.2236 10.9512 11.708
1 23.0173 10.1575 11.708
1 23.0071 10.9549 10.9023
1 22.2156 10.1459 10.9174
1 23.811 10.9512 11.708
1 24.6047 10.1575 11.708
1 24.5788 10.9275 10.9136
1 23.789 10.1487 10.887
1 25.3984 10.9512 11.708
1 26.1921 10.1575 11.708
1 26.1566 10.9357 10.9016
1 25.3766 10.1479 10.9043
1 26.9858 10.9512 11.708
1 27.7795 10.1575 11.708
1 27.7533 10.9334 10.8942
1 26.9742 10.1546 10.9023
1 28.5732 10.9512 11.708
1 29.3669 10.1575 11.708
1 29.3199 10.9724 10.8886
1 28.5547 10.1616 10.8976
1 30 9.36379 11.708
1 0.793701 8.57009 11.708
1 0.813569 9.36974 10.8988
1 0.0488165 8.55465 10.8739
1 1.5874 9.36379 11.708
1 2.3811 8.57009 11.708
1 2.40038 9.38985 10.9277
1 1.62174 8.59748 10.8955
1 3.1748 9.36379 11.708
1 3.9685 8.57009 11.708
1 3.97511 9.36431 10.9191
1 3.18745 8.56296 10.9173
1 4.7622 9.36379 11.708
1 5.5559 8.57009 11.708
1 5.54185 9.37122 10.9187
1 4.77265 8.58431 10.9209
1 6.3496 9.36379 11.708
1 7.1433 8.57009 11.708
1 7.14829 9.36618 10.9094
1 6.37012 8.57912 10.9043
1 7.93701 9.36379 11.708
1 8.73071 8.57009 11.708
1 8.71264 9.36264 10.9307
1 7.94205 8.58571 10.9216
1 9.52441 9.36379 11.708
1 10.3181 8.57009 11.708
1 10.2975 9.31426 10.9126
1 9.51059 8.56763 10.9253
1 11.1118 9.36379 11.708
1 11.9055 8.57009 11.708
1 11.9056 9.35978 10.9072
1 11.1329 8.5434 10.9417
1 12.6992 9.36379 11.708
1 13.4929 8.57009 11.708
1 13.4852 9.36517 10.906
1 12.6842 8.56283 10.9267
1 14.2866 9.36379 11.708
1 15.0803 8.57009 11.708
1 15.0713 9.37364 10.9085
1 14.299 8.58912 10.9095
1 15.874 9.36379 11.708
1 16.6677 8.57009 11.708
1 16.6527 9.37206 10.9383
1 15.8626 8.57882 10.8994
1 17.4614 9.36379 11.708
1 18.2551 8.57009 11.708
1 18.2281 9.37097 10.9409
1 17.4599 8.57914 10.9002
1 19.0488 9.36379 11.708
1 19.8425 8.57009 11.708
1 19.8213 9.38967 10.9133
1 19.0277 8.5359 10.9187
1 20.6362 9.36379 11.708
1 21.4299 8.57009 11.708
1 21.4441 9.36139 10.9048
1 20.6366 8.55816 10.9301
1 22.2236 9.36379 11.708
1 23.0173 8.57009 11.708
1 23.0149 9.34135 10.9164
1 22.245 8.57625 10.9299
1 23.811 9.36379 11.708
1 24.6047 8.57009 11.708
1 24.6105 9.35747 10.9063
1 23.823 8.56556 10.8989
1 25.3984 9.36379 11.708
1 26.1921 8.57009 11.708
1 26.1902 9.37043 10.8977
1 25.3908 8.549 10.9416
1 26.9858 9.36379 11.708
1 27.7795 8.57009 11.708
1 27.7701 9.35719 10.908
1 26.9746 8.5765 10.9034
1 28.5732 9.36379 11.708
1 29.3669 8.57009 11.708
1 29.3223 9.35328 10.8853
1 28.5606 8.56449 10.9064
1 30 7.77639 11.708
1 0.793701 6.98268 11.708
1 0.819992 7.81436 10.9038
1 0.106188 6.99473 10.8796
1 1.5874 7.77639 11.708
1 2.3811 6.98268 11.708
1 2.4044 7.7851 10.9261
1 1.58857 6.99385 10.9212
1 3.1748 7.77639 11.708
1 3.9685 6.98268 11.708
1 3.98411 7.77566 10.9095
1 3.21315 6.98807 10.9405
1 4.7622 7.77639 11.708
1 5.5559 6.98268 11.708
1 5.54718 7.77874 10.9091
1 4.75981 7.00802 10.9149
1 6.3496 7.77639 11.708
1 7.1433 6.98268 11.708
1 7.14709 7.78265 10.906
1 6.35546 6.98778 10.8996
1 7.93701 7.77639 11.708
1 8.73071 6.98268 11.708
1 8.72929 7.77207 10.9274
1 7.93245 6.99178 10.9096
1 9.52441 7.77639 11.708
1 10.3181 6.98268 11.708
1 10.3227 7.77696 10.9114
1 9.5353 6.98628 10.9112
1 11.1118 7.77639 11.708
1 11.9055 6.98268 11.708
1 11.9111 7.73795 10.9179
1 11.1249 6.99172 10.9167
1 12.6992 7.77639 11.708
1 13.4929 6.98268 11.708
1 13.4958 7.7903 10.9242
1 12.7154 6.98884 10.9252
1 14.2866 7.77639 11.708
1 15.0803 6.98268 11.708
1 15.0794 7.79926 10.9002
1 14.3047 7.00222 10.92
1 15.874 7.77639 11.708
1 16.6677 6.98268 11.708
1 16.6644 7.78994 10.9094
1 15.8613 6.99275 10.919
1 17.4614 7.77639 11.708
1 18.2551 6.98268 11.708
1 18.2517 7.77539 10.9191
1 17.4471 6.95062 10.9322
1 19.0488 7.77639 11.708
1 19.8425 6.98268 11.708
1 19.831 7.78919 10.9034
1 19.0434 6.98837 10.9206
1 20.6362 7.77639 11.708
1 21.4299 6.98268 11.708
1 21.4498 7.7975 10.9242
1 20.6534 6.98652 10.9097
1 22.2236 7.77639 11.708
1 23.0173 6.98268 11.708
1 23.0317 7.75929 10.915
1 22.2278 6.96505 10.9271
1 23.811 7.77639 11.708
1 24.6047 6.98268 11.708
1 24.6218 7.78856 10.917
1 23.8371 6.96679 10.9236
1 25.3984 7.77639 11.708
1 26.1921 6.98268 11.708
1 26.1887 7.7723 10.9145
1 25.4021 6.96819 10.9191
1 26.9858 7.77639 11.708
1 27.7795 6.98268 11.708
1 27.7697 7.77947 10.8941
1 26.9875 6.98118 10.8947
1 28.5732 7.77639 11.708
1 29.3669 6.98268 11.708
1 29.3137 7.77014 10.8905
1 28.5373 7.00503 10.907
1 30 6.18898 11.708
1 0.793701 5.39528 11.708
1 0.815365 6.19066 10.9129
1 0.055769 5.40797 10.8828
1 1.5874 6.18898 11.708
1 2.3811 5.39528 11.708
1 2.39371 6.18513 10.9003
1 1.62501 5.40328 10.9171
1 3.1748 6.18898 11.708
1 3.9685 5.39528 11.708
1 4.03104 6.194 10.9118
1 3.18683 5.40189 10.9033
1 4.7622 6.18898 11.708
1 5.5559 5.39528 11.708
1 5.55483 6.17866 10.9161
1 4.78503 5.3855 10.9164
1 6.3496 6.18898 11.708
1 7.1433 5.39528 11.708
1 7.14022 6.19477 10.906
1 6.35998 5.3768 10.9112
1 7.93701 6.18898 11.708
1 8.73071 5.39528 11.708
1 8.72219 6.2037 10.9226
1 7.94193 5.40622 10.89
1 9.52441 6.18898 11.708
1 10.3181 5.39528 11.708
1 10.311 6.20707 10.9104
1 9.51539 5.39755 10.9113
1 11.1118 6.18898 11.708
1 11.9055 5.39528 11.708
1 11.9107 6.20158 10.9385
1 11.141 5.40716 10.9192
1 12.6992 6.18898 11.708
1 13.4929 5.39528 11.708
1 13.4855 6.1786 10.9336
1 12.6814 5.38518 10.9086
1 14.2866 6.18898 11.708
1 15.0803 5.39528 11.708
1 15.1055 6.17388 10.9269
1 14.2882 5.4059 10.9146
1 15.874 6.18898 11.708
1 16.6677 5.39528 11.708
1 16.6643 6.18904 10.9391
1 15.8639 5.38439 10.9092
1 17.4614 6.18898 11.708
1 18.2551 5.39528 11.708
1 18.2768 6.2031 10.9097
1 17.4626 5.40528 10.9008