9376
Atoms. Timestep: 700000
1 0 3.55271e-15 10.6755
1 0.793701 29.2063 10.6755
1 0.804518 29.9339 9.84564
1 0.0576344 29.1853 9.84102
1 1.5874 3.55271e-15 10.6755
1 2.3811 29.2063 10.6755
1 2.39492 29.9683 9.85131
1 1.60364 29.1812 9.86994
1 3.1748 3.55271e-15 10.6755
1 3.9685 29.2063 10.6755
1 3.93126 29.9391 9.86349
1 3.16488 29.1574 9.89785
1 4.7622 3.55271e-15 10.6755
1 5.5559 29.2063 10.6755
1 5.58936 29.9251 9.8521
1 4.75103 29.188 9.84298
1 6.3496 3.55271e-15 10.6755
1 7.1433 29.2063 10.6755
1 7.14183 29.9251 9.8381
1 6.37204 29.1732 9.87462
1 7.93701 3.55271e-15 10.6755
1 8.73071 29.2063 10.6755
1 8.73429 29.9199 9.83727
1 7.92752 29.1716 9.87062
1 9.52441 3.55271e-15 10.6755
1 10.3181 29.2063 10.6755
1 10.3124 29.9177 9.84954
1 9.54271 29.1459 9.83994
1 11.1118 3.55271e-15 10.6755
1 11.9055 29.2063 10.6755
1 11.8943 29.9159 9.86087
1 11.1158 29.1821 9.8973
1 12.6992 3.55271e-15 10.6755
1 13.4929 29.2063 10.6755
1 13.4938 29.9301 9.86422
1 12.695 29.1783 9.88761
1 14.2866 3.55271e-15 10.6755
1 15.0803 29.2063 10.6755
1 15.0834 29.9486 9.8648
1 14.2852 29.172 9.8835
1 15.874 3.55271e-15 10.6755
1 16.6677 29.2063 10.6755
1 16.6554 29.9272 9.85916
1 15.8583 29.1806 9.88089
1 17.4614 3.55271e-15 10.6755
1 18.2551 29.2063 10.6755
1 18.2492 29.9505 9.8453
1 17.4564 29.1954 9.87553
1 19.0488 3.55271e-15 10.6755
1 19.8425 29.2063 10.6755
1 19.8499 29.9385 9.8588
1 19.061 29.1676 9.8686
1 20.6362 3.55271e-15 10.6755
1 21.4299 29.2063 10.6755
1 21.4292 29.9324 9.84647
1 20.6163 29.1618 9.89391
1 22.2236 3.55271e-15 10.6755
1 23.0173 29.2063 10.6755
1 23.0125 29.937 9.85163
1 22.2054 29.194 9.90588
1 23.811 3.55271e-15 10.6755
1 24.6047 29.2063 10.6755
1 24.6149 29.9559 9.81175
1 23.8272 29.1619 9.86675
1 25.3984 3.55271e-15 10.6755
1 26.1921 29.2063 10.6755
1 26.1901 29.9275 9.85607
1 25.3954 29.1687 9.86999
1 26.9858 3.55271e-15 10.6755
1 27.7795 29.2063 10.6755
1 27.7664 29.9413 9.84712
1 26.969 29.1871 9.85027
1 28.5732 3.55271e-15 10.6755
1 29.3669 29.2063 10.6755
1 29.3176 29.9409 9.81451
1 28.5246 29.177 9.85172
1 0 28.4126 10.6755
1 0.793701 27.6189 10.6755
1 0.830835 28.3928 9.8702
1 0.0864885 27.5969 9.82979
1 1.5874 28.4126 10.6755
1 2.3811 27.6189 10.6755
1 2.37174 28.416 9.85963
1 1.59396 27.6027 9.89204
1 3.1748 28.4126 10.6755
1 3.9685 27.6189 10.6755
1 3.96426 28.3835 9.87279
1 3.18863 27.626 9.89278
1 4.7622 28.4126 10.6755
1 5.5559 27.6189 10.6755
1 5.59063 28.4044 9.88056
1 4.76871 27.6379 9.89702
1 6.3496 28.4126 10.6755
1 7.1433 27.6189 10.6755
1 7.17387 28.3793 9.8921
1 6.34364 27.5947 9.89466
1 7.93701 28.4126 10.6755
1 8.73071 27.6189 10.6755
1 8.72073 28.3992 9.89617
1 7.93586 27.5895 9.89028
1 9.52441 28.4126 10.6755
1 10.3181 27.6189 10.6755
1 10.3307 28.4257 9.86542
1 9.51661 27.6194 9.90207
1 11.1118 28.4126 10.6755
1 11.9055 27.6189 10.6755
1 11.8908 28.4023 9.86738
1 11.1063 27.6082 9.88669
1 12.6992 28.4126 10.6755
1 13.4929 27.6189 10.6755
1 13.4861 28.3982 9.88279
1 12.6687 27.5961 9.90983
1 14.2866 28.4126 10.6755
1 15.0803 27.6189 10.6755
1 15.0582 28.4178 9.90603
1 14.2777 27.6141 9.9071
1 15.874 28.4126 10.6755
1 16.6677 27.6189 10.6755
1 16.6763 28.4018 9.87711
1 15.8777 27.6164 9.88864
1 17.4614 28.4126 10.6755
1 18.2551 27.6189 10.6755
1 18.2395 28.4339 9.89198
1 17.4533 27.591 9.86034
1 19.0488 28.4126 10.6755
1 19.8425 27.6189 10.6755
1 19.8711 28.3852 9.87195
1 19.0365 27.6323 9.87017
1 20.6362 28.4126 10.6755
1 21.4299 27.6189 10.6755
1 21.4257 28.4202 9.88163
1 20.6634 27.58 9.88728
1 22.2236 28.4126 10.6755
1 23.0173 27.6189 10.6755
1 23.0228 28.4038 9.88154
1 22.2324 27.6245 9.8738
1 23.811 28.4126 10.6755
1 24.6047 27.6189 10.6755
1 24.6047 28.3768 9.87228
1 23.7986 27.6029 9.89319
1 25.3984 28.4126 10.6755
1 26.1921 27.6189 10.6755
1 26.1877 28.4184 9.86479
1 25.3842 27.616 9.88895
1 26.9858 28.4126 10.6755
1 27.7795 27.6189 10.6755
1 27.759 28.404 9.8892
1 26.9497 27.5961 9.87101
1 28.5732 28.4126 10.6755
1 29.3669 27.6189 10.6755
1 29.2919 28.3894 9.84152
1 28.5339 27.5986 9.87025
1 0 26.8252 10.6755
1 0.793701 26.0315 10.6755
1 0.831933 26.8075 9.84686
1 0.0747669 26.0301 9.85438
1 1.5874 26.8252 10.6755
1 2.3811 26.0315 10.6755
1 2.39257 26.825 9.87493
1 1.62271 26.0151 9.87255
1 3.1748 26.8252 10.6755
1 3.9685 26.0315 10.6755
1 3.97144 26.849 9.87207
1 3.15684 26.0426 9.87755
1 4.7622 26.8252 10.6755
1 5.5559 26.0315 10.6755
1 5.5614 26.8132 9.85243
1 4.77118 26.0256 9.89605
1 6.3496 26.8252 10.6755
1 7.1433 26.0315 10.6755
1 7.1558 26.8373 9.87753
1 6.3808 26.0359 9.88365
1 7.93701 26.8252 10.6755
1 8.73071 26.0315 10.6755
1 8.73788 26.8065 9.90029
1 7.93453 26.0251 9.86943
1 9.52441 26.8252 10.6755
1 10.3181 26.0315 10.6755
1 10.3164 26.8185 9.89753
1 9.51519 26.0322 9.90833
1 11.1118 26.8252 10.6755
1 11.9055 26.0315 10.6755
1 11.8984 26.8041 9.8799
1 11.1068 26.0319 9.90928
1 12.6992 26.8252 10.6755
1 13.4929 26.0315 10.6755
1 13.5103 26.8324 9.87479
1 12.6983 26.0128 9.87098
1 14.2866 26.8252 10.6755
1 15.0803 26.0315 10.6755
1 15.0676 26.8381 9.90729
1 14.2965 26.0318 9.86026
1 15.874 26.8252 10.6755
1 16.6677 26.0315 10.6755
1 16.6701 26.8573 9.88971
1 15.9024 26.0285 9.88966
1 17.4614 26.8252 10.6755
1 18.2551 26.0315 10.6755
1 18.2795 26.8545 9.88235
1 17.4722 26.0406 9.88181
1 19.0488 26.8252 10.6755
1 19.8425 26.0315 10.6755
1 19.8427 26.8211 9.88282
1 19.0482 26.0186 9.88756
1 20.6362 26.8252 10.6755
1 21.4299 26.0315 10.6755
1 21.4626 26.8068 9.87286
1 20.6234 26.0329 9.87013
1 22.2236 26.8252 10.6755
1 23.0173 26.0315 10.6755
1 23.0295 26.8203 9.87411
1 22.2202 26.0144 9.87924
1 23.811 26.8252 10.6755
1 24.6047 26.0315 10.6755
1 24.603 26.8104 9.89618
1 23.8364 26.0498 9.87896
1 25.3984 26.8252 10.6755
1 26.1921 26.0315 10.6755
1 26.187 26.8113 9.85538
1 25.409 26.0312 9.89248
1 26.9858 26.8252 10.6755
1 27.7795 26.0315 10.6755
1 27.7772 26.8399 9.88918
1 27.0086 26.0316 9.91257
1 28.5732 26.8252 10.6755
1 29.3669 26.0315 10.6755
1 29.3207 26.8163 9.85831
1 28.5728 26.0385 9.86965
1 0 25.2378 10.6755
1 0.793701 24.4441 10.6755
1 0.838091 25.2471 9.89628
1 0.0598861 24.441 9.85513
1 1.5874 25.2378 10.6755
1 2.3811 24.4441 10.6755
1 2.37654 25.249 9.89793
1 1.59127 24.4263 9.86604
1 3.1748 25.2378 10.6755
1 3.9685 24.4441 10.6755
1 3.99749 25.2567 9.88882
1 3.20369 24.4429 9.86648
1 4.7622 25.2378 10.6755
1 5.5559 24.4441 10.6755
1 5.56013 25.2246 9.87746
1 4.75286 24.4187 9.89262
1 6.3496 25.2378 10.6755
1 7.1433 24.4441 10.6755
1 7.15815 25.2572 9.89032
1 6.37191 24.4403 9.88411
1 7.93701 25.2378 10.6755
1 8.73071 24.4441 10.6755
1 8.72272 25.228 9.86941
1 7.94235 24.448 9.88192
1 9.52441 25.2378 10.6755
1 10.3181 24.4441 10.6755
1 10.3563 25.2314 9.88041
1 9.51495 24.4593 9.90444
1 11.1118 25.2378 10.6755
1 11.9055 24.4441 10.6755
1 11.8982 25.2386 9.89681
1 11.1337 24.4264 9.8624
1 12.6992 25.2378 10.6755
1 13.4929 24.4441 10.6755
1 13.4881 25.2263 9.87365
1 12.6922 24.4222 9.88912
1 14.2866 25.2378 10.6755
1 15.0803 24.4441 10.6755
1 15.0827 25.2429 9.89373
1 14.2884 24.4524 9.897
1 15.874 25.2378 10.6755
1 16.6677 24.4441 10.6755
1 16.6604 25.239 9.89291
1 15.8744 24.4374 9.89803
1 17.4614 25.2378 10.6755
1 18.2551 24.4441 10.6755
1 18.2506 25.2308 9.88098
1 17.4692 24.4478 9.87118
1 19.0488 25.2378 10.6755
1 19.8425 24.4441 10.6755
1 19.8365 25.2445 9.89033
1 19.0656 24.444 9.89838
1 20.6362 25.2378 10.6755
1 21.4299 24.4441 10.6755
1 21.4361 25.2456 9.8948
1 20.6568 24.4552 9.87592
1 22.2236 25.2378 10.6755
1 23.0173 24.4441 10.6755
1 23.0206 25.2254 9.90899
1 22.2217 24.4505 9.90799
1 23.811 25.2378 10.6755
1 24.6047 24.4441 10.6755
1 24.5865 25.2369 9.87376
1 23.8021 24.4591 9.86667
1 25.3984 25.2378 10.6755
1 26.1921 24.4441 10.6755
1 26.1829 25.256 9.88842
1 25.3527 24.4463 9.89679
1 26.9858 25.2378 10.6755
1 27.7795 24.4441 10.6755
1 27.7805 25.2474 9.89211
1 26.9698 24.4624 9.88841
1 28.5732 25.2378 10.6755
1 29.3669 24.4441 10.6755
1 29.3074 25.2474 9.83487
1 28.5639 24.4513 9.89091
1 0 23.6504 10.6755
1 0.793701 22.8567 10.6755
1 0.847884 23.6179 9.85407
1 0.0616306 22.8647 9.84137
1 1.5874 23.6504 10.6755
1 2.3811 22.8567 10.6755
1 2.37812 23.6609 9.87937
1 1.62775 22.8701 9.88944
1 3.1748 23.6504 10.6755
1 3.9685 22.8567 10.6755
1 3.99447 23.6397 9.8787
1 3.18991 22.8644 9.89109
1 4.7622 23.6504 10.6755
1 5.5559 22.8567 10.6755
1 5.58455 23.6712 9.88661
1 4.77657 22.8688 9.88456
1 6.3496 23.6504 10.6755
1 7.1433 22.8567 10.6755
1 7.1471 23.6486 9.88027
1 6.35523 22.8521 9.89743
1 7.93701 23.6504 10.6755
1 8.73071 22.8567 10.6755
1 8.72638 23.642 9.90264
1 7.94871 22.8623 9.8848
1 9.52441 23.6504 10.6755
1 10.3181 22.8567 10.6755
1 10.3113 23.6667 9.87689
1 9.55365 22.8959 9.88015
1 11.1118 23.6504 10.6755
1 11.9055 22.8567 10.6755
1 11.9213 23.659 9.85656
1 11.1247 22.8803 9.89047
1 12.6992 23.6504 10.6755
1 13.4929 22.8567 10.6755
1 13.5093 23.6475 9.86808
1 12.6932 22.8431 9.86069
1 14.2866 23.6504 10.6755
1 15.0803 22.8567 10.6755
1 15.0815 23.6429 9.87768
1 14.3211 22.8214 9.87723
1 15.874 23.6504 10.6755
1 16.6677 22.8567 10.6755
1 16.6785 23.6489 9.89136
1 15.8919 22.8579 9.88299
1 17.4614 23.6504 10.6755
1 18.2551 22.8567 10.6755
1 18.2418 23.6339 9.87824
1 17.4457 22.8614 9.88469
1 19.0488 23.6504 10.6755
1 19.8425 22.8567 10.6755
1 19.8562 23.6554 9.90136
1 19.0127 22.8568 9.85395
1 20.6362 23.6504 10.6755
1 21.4299 22.8567 10.6755
1 21.4498 23.6471 9.8959
1 20.6314 22.8718 9.87564
1 22.2236 23.6504 10.6755
1 23.0173 22.8567 10.6755
1 23.0197 23.6696 9.87512
1 22.236 22.8894 9.86211
1 23.811 23.6504 10.6755
1 24.6047 22.8567 10.6755
1 24.5745 23.6294 9.90014
1 23.796 22.863 9.86923
1 25.3984 23.6504 10.6755
1 26.1921 22.8567 10.6755
1 26.1766 23.6693 9.90047
1 25.3705 22.8627 9.87722
1 26.9858 23.6504 10.6755
1 27.7795 22.8567 10.6755
1 27.7531 23.6865 9.87108
1 26.9851 22.846 9.89073
1 28.5732 23.6504 10.6755
1 29.3669 22.8567 10.6755
1 29.3081 23.6302 9.87505
1 28.5295 22.8807 9.8853
1 0 22.063 10.6755
1 0.793701 21.2693 10.6755
1 0.839766 22.0579 9.86803
1 0.0708257 21.2499 9.83604
1 1.5874 22.063 10.6755
1 2.3811 21.2693 10.6755
1 2.39126 22.0758 9.87959
1 1.62341 21.2641 9.89167
1 3.1748 22.063 10.6755
1 3.9685 21.2693 10.6755
1 3.99396 22.0789 9.87562
1 3.189 21.2681 9.90696
1 4.7622 22.063 10.6755
1 5.5559 21.2693 10.6755
1 5.60528 22.0499 9.88698
1 4.74824 21.2793 9.89533
1 6.3496 22.063 10.6755
1 7.1433 21.2693 10.6755
1 7.13543 22.0552 9.88602
1 6.35902 21.2516 9.87905
1 7.93701 22.063 10.6755
1 8.73071 21.2693 10.6755
1 8.759 22.0988 9.85594
1 7.92169 21.281 9.87863
1 9.52441 22.063 10.6755
1 10.3181 21.2693 10.6755
1 10.3152 22.0486 9.88186
1 9.514 21.2576 9.86781
1 11.1118 22.063 10.6755
1 11.9055 21.2693 10.6755
1 11.9019 22.064 9.90026
1 11.0993 21.2559 9.90143
1 12.6992 22.063 10.6755
1 13.4929 21.2693 10.6755
1 13.5052 22.0683 9.88221
1 12.7172 21.2638 9.88743
1 14.2866 22.063 10.6755
1 15.0803 21.2693 10.6755
1 15.1047 22.0533 9.8862
1 14.2991 21.2607 9.869
1 15.874 22.063 10.6755
1 16.6677 21.2693 10.6755
1 16.6564 22.0431 9.86096
1 15.8862 21.2399 9.87031
1 17.4614 22.063 10.6755
1 18.2551 21.2693 10.6755
1 18.2429 22.0496 9.87932
1 17.4588 21.2688 9.87489
1 19.0488 22.063 10.6755
1 19.8425 21.2693 10.6755
1 19.841 22.0782 9.87626
1 19.0503 21.2542 9.88714
1 20.6362 22.063 10.6755
1 21.4299 21.2693 10.6755
1 21.4487 22.0709 9.89247
1 20.6478 21.2871 9.8788
1 22.2236 22.063 10.6755
1 23.0173 21.2693 10.6755
1 23.035 22.055 9.85139
1 22.2337 21.2546 9.87689
1 23.811 22.063 10.6755
1 24.6047 21.2693 10.6755
1 24.5913 22.0845 9.85639
1 23.8088 21.2681 9.8668
1 25.3984 22.063 10.6755
1 26.1921 21.2693 10.6755
1 26.1714 22.0646 9.89372
1 25.413 21.277 9.85272
1 26.9858 22.063 10.6755
1 27.7795 21.2693 10.6755
1 27.7637 22.0666 9.84858
1 26.9813 21.267 9.88731
1 28.5732 22.063 10.6755
1 29.3669 21.2693 10.6755
1 29.3002 22.0682 9.83204
1 28.574 21.2555 9.84304
1 0 20.4756 10.6755
1 0.793701 19.6819 10.6755
1 0.837077 20.4644 9.87065
1 0.0583832 19.6851 9.84688
1 1.5874 20.4756 10.6755
1 2.3811 19.6819 10.6755
1 2.38652 20.4716 9.89189
1 1.60675 19.6779 9.88633
1 3.1748 20.4756 10.6755
1 3.9685 19.6819 10.6755
1 3.98422 20.4719 9.91206
1 3.17354 19.68 9.88934
1 4.7622 20.4756 10.6755
1 5.5559 19.6819 10.6755
1 5.57012 20.4737 9.90448
1 4.77895 19.6529 9.90127
1 6.3496 20.4756 10.6755
1 7.1433 19.6819 10.6755
1 7.1507 20.4363 9.89996
1 6.32605 19.6547 9.87806
1 7.93701 20.4756 10.6755
1 8.73071 19.6819 10.6755
1 8.71755 20.4946 9.88079
1 7.96269 19.6753 9.89599
1 9.52441 20.4756 10.6755
1 10.3181 19.6819 10.6755
1 10.314 20.4736 9.89535
1 9.53413 19.7108 9.88756
1 11.1118 20.4756 10.6755
1 11.9055 19.6819 10.6755
1 11.9101 20.4926 9.88448
1 11.1257 19.6963 9.88417
1 12.6992 20.4756 10.6755
1 13.4929 19.6819 10.6755
1 13.5054 20.4975 9.90421
1 12.729 19.6515 9.89761
1 14.2866 20.4756 10.6755
1 15.0803 19.6819 10.6755
1 15.1067 20.4878 9.8727
1 14.2921 19.6945 9.87685
1 15.874 20.4756 10.6755
1 16.6677 19.6819 10.6755
1 16.6499 20.4646 9.87593
1 15.8955 19.6712 9.87977
1 17.4614 20.4756 10.6755
1 18.2551 19.6819 10.6755
1 18.2637 20.5094 9.89258
1 17.4795 19.6845 9.90899
1 19.0488 20.4756 10.6755
1 19.8425 19.6819 10.6755
1 19.8311 20.4952 9.89415
1 19.0406 19.6781 9.87918
1 20.6362 20.4756 10.6755
1 21.4299 19.6819 10.6755
1 21.4302 20.4707 9.87763
1 20.6334 19.6766 9.89105
1 22.2236 20.4756 10.6755
1 23.0173 19.6819 10.6755
1 23.0154 20.4621 9.8957
1 22.2368 19.6745 9.87871
1 23.811 20.4756 10.6755
1 24.6047 19.6819 10.6755
1 24.615 20.4538 9.8855
1 23.7816 19.6805 9.88899
1 25.3984 20.4756 10.6755
1 26.1921 19.6819 10.6755
1 26.1612 20.4759 9.87372
1 25.3902 19.6752 9.87417
1 26.9858 20.4756 10.6755
1 27.7795 19.6819 10.6755
1 27.7381 20.5043 9.87745
1 26.9628 19.6957 9.8817
1 28.5732 20.4756 10.6755
1 29.3669 19.6819 10.6755
1 29.2817 20.4857 9.85528
1 28.5215 19.6873 9.86256
1 0 18.8882 10.6755
1 0.793701 18.0945 10.6755
1 0.829965 18.8657 9.88448
1 0.0411996 18.074 9.86386
1 1.5874 18.8882 10.6755
1 2.3811 18.0945 10.6755
1 2.37634 18.8869 9.88649
1 1.60858 18.0931 9.87039
1 3.1748 18.8882 10.6755
1 3.9685 18.0945 10.6755
1 3.97014 18.8761 9.88222
1 3.18228 18.1008 9.8662
1 4.7622 18.8882 10.6755
1 5.5559 18.0945 10.6755
1 5.56518 18.8636 9.87676
1 4.75561 18.0935 9.87631
1 6.3496 18.8882 10.6755
1 7.1433 18.0945 10.6755
1 7.15813 18.9087 9.90051
1 6.34958 18.0794 9.88577
1 7.93701 18.8882 10.6755
1 8.73071 18.0945 10.6755
1 8.75254 18.8852 9.88728
1 7.93872 18.0799 9.88383
1 9.52441 18.8882 10.6755
1 10.3181 18.0945 10.6755
1 10.3339 18.8911 9.89166
1 9.55547 18.0952 9.87662
1 11.1118 18.8882 10.6755
1 11.9055 18.0945 10.6755
1 11.9133 18.8805 9.89412
1 11.1207 18.0905 9.90231
1 12.6992 18.8882 10.6755
1 13.4929 18.0945 10.6755
1 13.4937 18.8695 9.90576
1 12.6976 18.0816 9.87236
1 14.2866 18.8882 10.6755
1 15.0803 18.0945 10.6755
1 15.085 18.8963 9.90113
1 14.3368 18.0796 9.85539
1 15.874 18.8882 10.6755
1 16.6677 18.0945 10.6755
1 16.6819 18.8736 9.88437
1 15.8547 18.0779 9.89062
1 17.4614 18.8882 10.6755
1 18.2551 18.0945 10.6755
1 18.2678 18.8935 9.87112
1 17.4579 18.1054 9.86818
1 19.0488 18.8882 10.6755
1 19.8425 18.0945 10.6755
1 19.8441 18.887 9.88057
1 19.0443 18.0918 9.86928
1 20.6362 18.8882 10.6755
1 21.4299 18.0945 10.6755
1 21.4346 18.9 9.90103
1 20.6279 18.0966 9.88457
1 22.2236 18.8882 10.6755
1 23.0173 18.0945 10.6755
1 23.0014 18.8618 9.88477
1 22.2039 18.0969 9.88629
1 23.811 18.8882 10.6755
1 24.6047 18.0945 10.6755
1 24.5888 18.8777 9.90376
1 23.8082 18.1121 9.8851
1 25.3984 18.8882 10.6755
1 26.1921 18.0945 10.6755
1 26.1808 18.8788 9.88385
1 25.3855 18.0949 9.90241
1 26.9858 18.8882 10.6755
1 27.7795 18.0945 10.6755
1 27.7578 18.8991 9.88452
1 26.98 18.1022 9.88741
1 28.5732 18.8882 10.6755
1 29.3669 18.0945 10.6755
1 29.2796 18.8875 9.83787
1 28.515 18.0914 9.8439
1 0 17.3008 10.6755
1 0.793701 16.5071 10.6755
1 0.839877 17.305 9.87399
1 0.0473412 16.507 9.79231
1 1.5874 17.3008 10.6755
1 2.3811 16.5071 10.6755
1 2.38205 17.2964 9.86596
1 1.59145 16.5041 9.8485
1 3.1748 17.3008 10.6755
1 3.9685 16.5071 10.6755
1 3.97769 17.291 9.87967
1 3.16106 16.5126 9.88041
1 4.7622 17.3008 10.6755
1 5.5559 16.5071 10.6755
1 5.55049 17.317 9.86603
1 4.75695 16.5258 9.8729
1 6.3496 17.3008 10.6755
1 7.1433 16.5071 10.6755
1 7.12787 17.3166 9.88511
1 6.33566 16.5176 9.87961
1 7.93701 17.3008 10.6755
1 8.73071 16.5071 10.6755
1 8.7646 17.2748 9.88015
1 7.94315 16.5174 9.87541
1 9.52441 17.3008 10.6755
1 10.3181 16.5071 10.6755
1 10.334 17.2794 9.85453
1 9.54127 16.486 9.89135
1 11.1118 17.3008 10.6755
1 11.9055 16.5071 10.6755
1 11.8935 17.2999 9.89776
1 11.118 16.5073 9.87291
1 12.6992 17.3008 10.6755
1 13.4929 16.5071 10.6755
1 13.502 17.309 9.87519
1 12.7128 16.4856 9.88589
1 14.2866 17.3008 10.6755
1 15.0803 16.5071 10.6755
1 15.0755 17.2862 9.89103
1 14.2811 16.505 9.88085
1 15.874 17.3008 10.6755
1 16.6677 16.5071 10.6755
1 16.6962 17.3004 9.88652
1 15.8827 16.5136 9.88569
1 17.4614 17.3008 10.6755
1 18.2551 16.5071 10.6755
1 18.2446 17.2863 9.87948
1 17.468 16.5039 9.8728
1 19.0488 17.3008 10.6755
1 19.8425 16.5071 10.6755
1 19.8299 17.2851 9.86986
1 19.0533 16.5182 9.89097
1 20.6362 17.3008 10.6755
1 21.4299 16.5071 10.6755
1 21.4168 17.2817 9.87845
1 20.6374 16.5002 9.87757
1 22.2236 17.3008 10.6755
1 23.0173 16.5071 10.6755
1 22.9982 17.2899 9.86507
1 22.2268 16.5197 9.87479
1 23.811 17.3008 10.6755
1 24.6047 16.5071 10.6755
1 24.5858 17.3077 9.87108
1 23.8086 16.5122 9.88268
1 25.3984 17.3008 10.6755
1 26.1921 16.5071 10.6755
1 26.197 17.2971 9.89373
1 25.4019 16.4942 9.86457
1 26.9858 17.3008 10.6755
1 27.7795 16.5071 10.6755
1 27.7384 17.2873 9.89839
1 26.9592 16.4996 9.88475
1 28.5732 17.3008 10.6755
1 29.3669 16.5071 10.6755
1 29.2718 17.3106 9.85646
1 28.5157 16.468 9.87008
1 0 15.7134 10.6755
1 0.793701 14.9197 10.6755
1 0.802078 15.7044 9.86137
1 0.0681223 14.9079 9.847
1 1.5874 15.7134 10.6755
1 2.3811 14.9197 10.6755
1 2.38354 15.723 9.89304
1 1.60701 14.9244 9.86933
1 3.1748 15.7134 10.6755
1 3.9685 14.9197 10.6755
1 3.97623 15.713 9.8979
1 3.19214 14.9616 9.87799
1 4.7622 15.7134 10.6755
1 5.5559 14.9197 10.6755
1 5.55723 15.7277 9.89674
1 4.77884 14.9273 9.8953
1 6.3496 15.7134 10.6755
1 7.1433 14.9197 10.6755
1 7.12752 15.7265 9.86917
1 6.34618 14.936 9.90006
1 7.93701 15.7134 10.6755
1 8.73071 14.9197 10.6755
1 8.70236 15.6888 9.88344
1 7.92296 14.9199 9.88296
1 9.52441 15.7134 10.6755
1 10.3181 14.9197 10.6755
1 10.3185 15.7152 9.88612
1 9.50513 14.9394 9.86126
1 11.1118 15.7134 10.6755
1 11.9055 14.9197 10.6755
1 11.9253 15.714 9.89785
1 11.1303 14.9344 9.87038
1 12.6992 15.7134 10.6755
1 13.4929 14.9197 10.6755
1 13.4943 15.7096 9.86211
1 12.6844 14.9167 9.86761
1 14.2866 15.7134 10.6755
1 15.0803 14.9197 10.6755
1 15.0762 15.7047 9.88109
1 14.2672 14.9283 9.8888
1 15.874 15.7134 10.6755
1 16.6677 14.9197 10.6755
1 16.67 15.7078 9.88268
1 15.899 14.9118 9.8999
1 17.4614 15.7134 10.6755
1 18.2551 14.9197 10.6755
1 18.2524 15.7268 9.88806
1 17.4799 14.9104 9.87599
1 19.0488 15.7134 10.6755
1 19.8425 14.9197 10.6755
1 19.8187 15.7285 9.89011
1 19.057 14.9052 9.88762
1 20.6362 15.7134 10.6755
1 21.4299 14.9197 10.6755
1 21.4547 15.7239 9.88223
1 20.6326 14.9253 9.85239
1 22.2236 15.7134 10.6755
1 23.0173 14.9197 10.6755
1 23.0081 15.7077 9.8878
1 22.2042 14.9221 9.89685
1 23.811 15.7134 10.6755
1 24.6047 14.9197 10.6755
1 24.6235 15.6993 9.87683
1 23.8006 14.9038 9.91032
1 25.3984 15.7134 10.6755
1 26.1921 14.9197 10.6755
1 26.1953 15.7088 9.89387
1 25.3858 14.912 9.86375
1 26.9858 15.7134 10.6755
1 27.7795 14.9197 10.6755
1 27.7903 15.7261 9.91894
1 27.0096 14.915 9.89711
1 28.5732 15.7134 10.6755
1 29.3669 14.9197 10.6755
1 29.3089 15.6907 9.8295
1 28.5438 14.9316 9.8611
1 0 14.126 10.6755
1 0.793701 13.3323 10.6755
1 0.805075 14.115 9.85308
1 0.0758348 13.3288 9.83822
1 1.5874 14.126 10.6755
1 2.3811 13.3323 10.6755
1 2.38401 14.123 9.88405
1 1.59552 13.3299 9.87012
1 3.1748 14.126 10.6755
1 3.9685 13.3323 10.6755
1 3.96714 14.1253 9.87905
1 3.18563 13.3391 9.87739
1 4.7622 14.126 10.6755
1 5.5559 13.3323 10.6755
1 5.54542 14.1307 9.90056
1 4.7519 13.3143 9.89178
1 6.3496 14.126 10.6755
1 7.1433 13.3323 10.6755
1 7.13742 14.1181 9.89374
1 6.34708 13.3508 9.89785
1 7.93701 14.126 10.6755
1 8.73071 13.3323 10.6755
1 8.73819 14.1262 9.87189
1 7.94036 13.3254 9.91209
1 9.52441 14.126 10.6755
1 10.3181 13.3323 10.6755
1 10.3182 14.1434 9.88672
1 9.52859 13.3367 9.88036
1 11.1118 14.126 10.6755
1 11.9055 13.3323 10.6755
1 11.9179 14.1319 9.87416
1 11.112 13.3244 9.90672
1 12.6992 14.126 10.6755
1 13.4929 13.3323 10.6755
1 13.4772 14.1084 9.8812
1 12.669 13.3322 9.85971
1 14.2866 14.126 10.6755
1 15.0803 13.3323 10.6755
1 15.0657 14.1235 9.87811
1 14.273 13.353 9.87774
1 15.874 14.126 10.6755
1 16.6677 13.3323 10.6755
1 16.6607 14.1499 9.90277
1 15.8801 13.3173 9.91654
1 17.4614 14.126 10.6755
1 18.2551 13.3323 10.6755
1 18.258 14.1089 9.90971
1 17.4513 13.3377 9.91519
1 19.0488 14.126 10.6755
1 19.8425 13.3323 10.6755
1 19.8561 14.1211 9.86133
1 19.0357 13.3357 9.8838
1 20.6362 14.126 10.6755
1 21.4299 13.3323 10.6755
1 21.4247 14.1174 9.8884
1 20.6396 13.3203 9.89109
1 22.2236 14.126 10.6755
1 23.0173 13.3323 10.6755
1 23.0196 14.1364 9.86324
1 22.2283 13.3132 9.91113
1 23.811 14.126 10.6755
1 24.6047 13.3323 10.6755
1 24.5932 14.1301 9.88082
1 23.8043 13.3364 9.85412
1 25.3984 14.126 10.6755
1 26.1921 13.3323 10.6755
1 26.1992 14.1209 9.89768
1 25.3865 13.3628 9.86947
1 26.9858 14.126 10.6755
1 27.7795 13.3323 10.6755
1 27.7699 14.1178 9.86248
1 26.9746 13.3355 9.87081
1 28.5732 14.126 10.6755
1 29.3669 13.3323 10.6755
1 29.3184 14.1451 9.86628
1 28.5513 13.3404 9.87893
1 0 12.5386 10.6755
1 0.793701 11.7449 10.6755
1 0.843512 12.5342 9.86754
1 0.084692 11.7518 9.86052
1 1.5874 12.5386 10.6755
1 2.3811 11.7449 10.6755
1 2.38975 12.5393 9.90255
1 1.60226 11.7379 9.86386
1 3.1748 12.5386 10.6755
1 3.9685 11.7449 10.6755
1 3.99078 12.5488 9.86521
1 3.18553 11.7692 9.85937
1 4.7622 12.5386 10.6755
1 5.5559 11.7449 10.6755
1 5.55346 12.5312 9.90181
1 4.76341 11.721 9.87924
1 6.3496 12.5386 10.6755
1 7.1433 11.7449 10.6755
1 7.14592 12.5613 9.87205
1 6.33232 11.7477 9.85837
1 7.93701 12.5386 10.6755
1 8.73071 11.7449 10.6755
1 8.72962 12.5401 9.87952
1 7.95707 11.7361 9.90976
1 9.52441 12.5386 10.6755
1 10.3181 11.7449 10.6755
1 10.3224 12.5065 9.88857
1 9.54871 11.7673 9.88687
1 11.1118 12.5386 10.6755
1 11.9055 11.7449 10.6755
1 11.9001 12.532 9.87693
1 11.1216 11.7323 9.90394
1 12.6992 12.5386 10.6755
1 13.4929 11.7449 10.6755
1 13.4643 12.5562 9.86863
1 12.6924 11.7581 9.87301
1 14.2866 12.5386 10.6755
1 15.0803 11.7449 10.6755
1 15.083 12.5448 9.87649
1 14.3094 11.7573 9.87128
1 15.874 12.5386 10.6755
1 16.6677 11.7449 10.6755
1 16.6848 12.5287 9.87289
1 15.8721 11.7385 9.8763
1 17.4614 12.5386 10.6755
1 18.2551 11.7449 10.6755
1 18.2549 12.5505 9.87377
1 17.4618 11.7432 9.87513
1 19.0488 12.5386 10.6755
1 19.8425 11.7449 10.6755
1 19.8333 12.5398 9.87774
1 19.0487 11.7879 9.86968
1 20.6362 12.5386 10.6755
1 21.4299 11.7449 10.6755
1 21.4259 12.5281 9.8836
1 20.6253 11.7439 9.88
1 22.2236 12.5386 10.6755
1 23.0173 11.7449 10.6755
1 23.0107 12.5188 9.87198
1 22.2317 11.7547 9.88797
1 23.811 12.5386 10.6755
1 24.6047 11.7449 10.6755
1 24.624 12.5432 9.91723
1 23.8096 11.7421 9.88383
1 25.3984 12.5386 10.6755
1 26.1921 11.7449 10.6755
1 26.1949 12.564 9.89428
1 25.3932 11.7545 9.87949
1 26.9858 12.5386 10.6755
1 27.7795 11.7449 10.6755
1 27.7789 12.546 9.90371
1 26.9819 11.7495 9.89591
1 28.5732 12.5386 10.6755
1 29.3669 11.7449 10.6755
1 29.3169 12.5432 9.85337
1 28.5447 11.7332 9.88762
1 0 10.9512 10.6755
1 0.793701 10.1575 10.6755
1 0.849777 10.9391 9.87461
1 0.0849286 10.1547 9.81745
1 1.5874 10.9512 10.6755
1 2.3811 10.1575 10.6755
1 2.41323 10.9661 9.88613
1 1.61514 10.1493 9.87449
1 3.1748 10.9512 10.6755
1 3.9685 10.1575 10.6755
1 3.98508 10.9399 9.86957
1 3.1927 10.1441 9.88847
1 4.7622 10.9512 10.6755
1 5.5559 10.1575 10.6755
1 5.54436 10.9546 9.88516
1 4.77474 10.1428 9.87956
1 6.3496 10.9512 10.6755
1 7.1433 10.1575 10.6755
1 7.14476 10.9551 9.87202
1 6.36112 10.1612 9.88137
1 7.93701 10.9512 10.6755
1 8.73071 10.1575 10.6755
1 8.74629 10.9808 9.88497
1 7.95805 10.1521 9.88296
1 9.52441 10.9512 10.6755
1 10.3181 10.1575 10.6755
1 10.3176 10.9586 9.88082
1 9.5087 10.1632 9.88592
1 11.1118 10.9512 10.6755
1 11.9055 10.1575 10.6755
1 11.9141 10.9506 9.88923
1 11.1087 10.1643 9.88586
1 12.6992 10.9512 10.6755
1 13.4929 10.1575 10.6755
1 13.4792 10.9665 9.9153
1 12.6881 10.148 9.87061
1 14.2866 10.9512 10.6755
1 15.0803 10.1575 10.6755
1 15.067 10.9573 9.86197
1 14.3019 10.1614 9.90061
1 15.874 10.9512 10.6755
1 16.6677 10.1575 10.6755
1 16.678 10.9431 9.87432
1 15.8665 10.2058 9.87737
1 17.4614 10.9512 10.6755
1 18.2551 10.1575 10.6755
1 18.2582 10.9902 9.88287
1 17.4507 10.1614 9.88533
1 19.0488 10.9512 10.6755
1 19.8425 10.1575 10.6755
1 19.819 10.9739 9.90343
1 19.0395 10.1767 9.90476
1 20.6362 10.9512 10.6755
1 21.4299 10.1575 10.6755
1 21.4257 10.9789 9.91066
1 20.5997 10.1784 9.91064
1 22.2236 10.9512 10.6755
1 23.0173 10.1575 10.6755
1 23.0308 10.9471 9.90714
1 22.2194 10.1833 9.89832
1 23.811 10.9512 10.6755
1 24.6047 10.1575 10.6755
1 24.6065 10.9594 9.86011
1 23.8331 10.1633 9.88891
1 25.3984 10.9512 10.6755
1 26.1921 10.1575 10.6755
1 26.1775 10.9603 9.90811
1 25.4078 10.1763 9.90243
1 26.9858 10.9512 10.6755
1 27.7795 10.1575 10.6755
1 27.7386 10.9624 9.86832
1 26.9823 10.1347 9.90062
1 28.5732 10.9512 10.6755
1 29.3669 10.1575 10.6755
1 29.3163 10.9385 9.82035
1 28.5428 10.1588 9.86333
1 0 9.36379 10.6755
1 0.793701 8.57009 10.6755
1 0.810534 9.36212 9.86292
1 0.0568399 8.58298 9.8276
1 1.5874 9.36379 10.6755
1 2.3811 8.57009 10.6755
1 2.40626 9.35901 9.89602
1 1.5738 8.56811 9.9025
1 3.1748 9.36379 10.6755
1 3.9685 8.57009 10.6755
1 3.99099 9.35115 9.9024
1 3.18412 8.54475 9.89172
1 4.7622 9.36379 10.6755
1 5.5559 8.57009 10.6755
1 5.53564 9.33637 9.86767
1 4.76048 8.58423 9.86479
1 6.3496 9.36379 10.6755
1 7.1433 8.57009 10.6755
1 7.16313 9.36311 9.91552
1 6.3264 8.58278 9.8969
1 7.93701 9.36379 10.6755
1 8.73071 8.57009 10.6755
1 8.75074 9.34695 9.88102
1 7.95172 8.57498 9.87459
1 9.52441 9.36379 10.6755
1 10.3181 8.57009 10.6755
1 10.3165 9.37165 9.86248
1 9.54037 8.56274 9.86186
1 11.1118 9.36379 10.6755
1 11.9055 8.57009 10.6755
1 11.8971 9.35756 9.86856
1 11.1039 8.5765 9.88877
1 12.6992 9.36379 10.6755
1 13.4929 8.57009 10.6755
1 13.4868 9.35853 9.88807
1 12.6971 8.57586 9.88792
1 14.2866 9.36379 10.6755
1 15.0803 8.57009 10.6755
1 15.0926 9.39531 9.9001
1 14.2893 8.58183 9.86034
1 15.874 9.36379 10.6755
1 16.6677 8.57009 10.6755
1 16.6402 9.36961 9.89109
1 15.8821 8.58952 9.88566
1 17.4614 9.36379 10.6755
1 18.2551 8.57009 10.6755
1 18.2679 9.38026 9.88987
1 17.4772 8.57954 9.87174
1 19.0488 9.36379 10.6755
1 19.8425 8.57009 10.6755
1 19.8359 9.37056 9.87882
1 19.0712 8.55674 9.88103
1 20.6362 9.36379 10.6755
1 21.4299 8.57009 10.6755
1 21.4155 9.38176 9.90008
1 20.6356 8.56714 9.90284
1 22.2236 9.36379 10.6755
1 23.0173 8.57009 10.6755
1 23.0165 9.38017 9.87981
1 22.2213 8.58251 9.88192
1 23.811 9.36379 10.6755
1 24.6047 8.57009 10.6755
1 24.6067 9.35064 9.86769
1 23.7877 8.54959 9.89816
1 25.3984 9.36379 10.6755
1 26.1921 8.57009 10.6755
1 26.1831 9.3678 9.8686
1 25.3995 8.5791 9.87917
1 26.9858 9.36379 10.6755
1 27.7795 8.57009 10.6755
1 27.7871 9.36029 9.88381
1 26.9666 8.59476 9.87177
1 28.5732 9.36379 10.6755
1 29.3669 8.57009 10.6755
1 29.298 9.35023 9.86774
1 28.5499 8.5508 9.88539
1 0 7.77639 10.6755
1 0.793701 6.98268 10.6755
1 0.808053 7.79717 9.88651
1 0.0608641 6.99874 9.86218
1 1.5874 7.77639 10.6755
1 2.3811 6.98268 10.6755
1 2.39391 7.76434 9.89919
1 1.59064 6.9763 9.85856
1 3.1748 7.77639 10.6755
1 3.9685 6.98268 10.6755
1 3.9667 7.79036 9.88262
1 3.19926 6.96739 9.89574
1 4.7622 7.77639 10.6755
1 5.5559 6.98268 10.6755
1 5.53999 7.77472 9.87178
1 4.76269 6.99291 9.89043
1 6.3496 7.77639 10.6755
1 7.1433 6.98268 10.6755
1 7.14729 7.78346 9.88593
1 6.3747 6.99132 9.89791
1 7.93701 7.77639 10.6755
1 8.73071 6.98268 10.6755
1 8.74436 7.78765 9.88574
1 7.94431 6.97884 9.86344
1 9.52441 7.77639 10.6755
1 10.3181 6.98268 10.6755
1 10.3229 7.78749 9.91081
1 9.5114 6.95334 9.88375
1 11.1118 7.77639 10.6755
1 11.9055 6.98268 10.6755
1 11.8886 7.78935 9.89735
1 11.1415 6.99562 9.90025
1 12.6992 7.77639 10.6755
1 13.4929 6.98268 10.6755
1 13.5058 7.78407 9.87132
1 12.7105 6.97089 9.86734
1 14.2866 7.77639 10.6755
1 15.0803 6.98268 10.6755
1 15.0845 7.7874 9.89058
1 14.2922 6.97354 9.88857
1 15.874 7.77639 10.6755
1 16.6677 6.98268 10.6755
1 16.6929 7.76503 9.91116
1 15.8734 6.99805 9.86283
1 17.4614 7.77639 10.6755
1 18.2551 6.98268 10.6755
1 18.2508 7.76952 9.899
1 17.4742 6.98468 9.87365
1 19.0488 7.77639 10.6755
1 19.8425 6.98268 10.6755
1 19.8423 7.74944 9.87488
1 19.0495 6.98259 9.87784
1 20.6362 7.77639 10.6755
1 21.4299 6.98268 10.6755
1 21.4412 7.75699 9.88786
1 20.6337 6.97627 9.88197
1 22.2236 7.77639 10.6755
1 23.0173 6.98268 10.6755
1 22.9906 7.76344 9.89234
1 22.2162 6.97602 9.89278
1 23.811 7.77639 10.6755
1 24.6047 6.98268 10.6755
1 24.597 7.78339 9.88058
1 23.8017 6.97115 9.87381
1 25.3984 7.77639 10.6755
1 26.1921 6.98268 10.6755
1 26.18 7.78483 9.86779
1 25.3857 7.00738 9.86963
1 26.9858 7.77639 10.6755
1 27.7795 6.98268 10.6755
1 27.7549 7.77482 9.85607
1 26.9757 6.95736 9.88473
1 28.5732 7.77639 10.6755
1 29.3669 6.98268 10.6755
1 29.2873 7.79018 9.83432
1 28.5403 6.97465 9.88398
1 0 6.18898 10.6755
1 0.793701 5.39528 10.6755
1 0.831636 6.19389 9.86959
1 0.0933848 5.42319 9.8498
1 1.5874 6.18898 10.6755
1 2.3811 5.39528 10.6755
1 2.38036 6.183 9.87694
1 1.61076 5.40844 9.88052
1 3.1748 6.18898 10.6755
1 3.9685 5.39528 10.6755
1 3.96793 6.19104 9.89487
1 3.16682 5.40943 9.86579
1 4.7622 6.18898 10.6755
1 5.5559 5.39528 10.6755
1 5.55594 6.21453 9.88689
1 4.79922 5.39726 9.89261
1 6.3496 6.18898 10.6755
1 7.1433 5.39528 10.6755
1 7.1526 6.20622 9.87598
1 6.35644 5.40967 9.88819
1 7.93701 6.18898 10.6755
1 8.73071 5.39528 10.6755
1 8.73794 6.17252 9.90446
1 7.92313 5.3993 9.88144
1 9.52441 6.18898 10.6755
1 10.3181 5.39528 10.6755