9376
Atoms. Timestep: 4000000
1 15 3.55271e-15 10.798
1 15.7937 29.2063 10.798
1 15.8438 29.9114 9.95843
1 15.0698 29.164 9.96076
1 16.5874 3.55271e-15 10.798
1 17.3811 29.2063 10.798
1 17.3833 29.9105 9.96917
1 16.6113 29.1685 9.98769
1 18.1748 3.55271e-15 10.798
1 18.9685 29.2063 10.798
1 18.9723 29.9307 9.9684
1 18.1929 29.1484 10.0211
1 19.7622 3.55271e-15 10.798
1 20.5559 29.2063 10.798
1 20.5707 29.9226 9.96647
1 19.7459 29.1659 10.0031
1 21.3496 3.55271e-15 10.798
1 22.1433 29.2063 10.798
1 22.1645 29.9466 9.99181
1 21.3837 29.1723 9.99345
1 22.937 3.55271e-15 10.798
1 23.7307 29.2063 10.798
1 23.7416 29.9074 9.98161
1 22.9514 29.1625 10.0074
1 24.5244 3.55271e-15 10.798
1 25.3181 29.2063 10.798
1 25.3237 29.9291 9.96275
1 24.5407 29.1637 9.98221
1 26.1118 3.55271e-15 10.798
1 26.9055 29.2063 10.798
1 26.865 29.9478 9.9527
1 26.0826 29.181 10.0084
1 27.6992 3.55271e-15 10.798
1 28.4929 29.2063 10.798
1 28.4967 29.9209 9.925
1 27.6841 29.1727 10.0001
1 29.2866 3.55271e-15 10.798
1 0.08031 29.2063 10.798
1 0.0941316 29.9509 9.97801
1 29.2931 29.1992 9.97326
1 0.874011 3.55271e-15 10.798
1 1.66771 29.2063 10.798
1 1.68788 29.9471 9.96663
1 0.875737 29.2125 9.99842
1 2.46141 3.55271e-15 10.798
1 3.25511 29.2063 10.798
1 3.25614 29.9215 9.97471
1 2.47521 29.1735 10.0027
1 4.04881 3.55271e-15 10.798
1 4.84251 29.2063 10.798
1 4.84907 29.9292 9.96245
1 4.04859 29.1876 9.98895
1 5.63621 3.55271e-15 10.798
1 6.42991 29.2063 10.798
1 6.41274 29.9366 9.98459
1 5.64811 29.1815 9.99181
1 7.22361 3.55271e-15 10.798
1 8.01732 29.2063 10.798
1 8.01638 29.9387 9.98205
1 7.21039 29.1648 10.0136
1 8.81102 3.55271e-15 10.798
1 9.60472 29.2063 10.798
1 9.58514 29.9312 9.95825
1 8.78387 29.154 10.0168
1 10.3984 3.55271e-15 10.798
1 11.1921 29.2063 10.798
1 11.1948 29.9236 9.97611
1 10.396 29.2059 10.016
1 11.9858 3.55271e-15 10.798
1 12.7795 29.2063 10.798
1 12.7663 29.9508 9.95829
1 11.9761 29.1868 9.97182
1 13.5732 3.55271e-15 10.798
1 14.3669 29.2063 10.798
1 14.2951 29.9121 9.93312
1 13.5313 29.2049 9.98019
1 15 28.4126 10.798
1 15.7937 27.6189 10.798
1 15.8143 28.3929 10.0213
1 15.0652 27.5989 9.94973
1 16.5874 28.4126 10.798
1 17.3811 27.6189 10.798
1 17.3822 28.3874 9.99178
1 16.605 27.5995 10.0017
1 18.1748 28.4126 10.798
1 18.9685 27.6189 10.798
1 18.9747 28.3752 10.0085
1 18.1643 27.5727 9.9998
1 19.7622 28.4126 10.798
1 20.5559 27.6189 10.798
1 20.5437 28.3907 9.98331
1 19.757 27.5803 9.99513
1 21.3496 28.4126 10.798
1 22.1433 27.6189 10.798
1 22.1513 28.3947 10.0029
1 21.3504 27.5913 9.99334
1 22.937 28.4126 10.798
1 23.7307 27.6189 10.798
1 23.7347 28.4001 10.0189
1 22.9448 27.6158 10.0122
1 24.5244 28.4126 10.798
1 25.3181 27.6189 10.798
1 25.3271 28.3938 10.0272
1 24.5232 27.5979 10.0054
1 26.1118 28.4126 10.798
1 26.9055 27.6189 10.798
1 26.9083 28.3888 10.0044
1 26.1152 27.623 9.99709
1 27.6992 28.4126 10.798
1 28.4929 27.6189 10.798
1 28.4962 28.4048 9.99304
1 27.7036 27.619 10.0017
1 29.2866 28.4126 10.798
1 0.08031 27.6189 10.798
1 0.0769276 28.4122 9.98147
1 29.2941 27.6083 9.98858
1 0.874011 28.4126 10.798
1 1.66771 27.6189 10.798
1 1.67157 28.4149 10.0144
1 0.88136 27.6027 9.98903
1 2.46141 28.4126 10.798
1 3.25511 27.6189 10.798
1 3.25917 28.3917 9.99685
1 2.44224 27.6303 10.0102
1 4.04881 28.4126 10.798
1 4.84251 27.6189 10.798
1 4.84621 28.3812 10.0215
1 4.07385 27.5863 9.99438
1 5.63621 28.4126 10.798
1 6.42991 27.6189 10.798
1 6.39678 28.4015 10.0098
1 5.6294 27.6053 9.96343
1 7.22361 28.4126 10.798
1 8.01732 27.6189 10.798
1 7.97784 28.3758 9.98756
1 7.1819 27.5889 9.98837
1 8.81102 28.4126 10.798
1 9.60472 27.6189 10.798
1 9.60993 28.4073 10.0088
1 8.814 27.5929 10.0101
1 10.3984 28.4126 10.798
1 11.1921 27.6189 10.798
1 11.206 28.3923 9.98017
1 10.3954 27.6082 10.0044
1 11.9858 28.4126 10.798
1 12.7795 27.6189 10.798
1 12.7498 28.3947 10.0047
1 11.9467 27.5759 10.006
1 13.5732 28.4126 10.798
1 14.3669 27.6189 10.798
1 14.2877 28.4167 9.96294
1 13.5475 27.6147 9.98374
1 15 26.8252 10.798
1 15.7937 26.0315 10.798
1 15.8274 26.8213 9.96113
1 15.0909 26.0298 9.9489
1 16.5874 26.8252 10.798
1 17.3811 26.0315 10.798
1 17.4027 26.8033 10.0261
1 16.6087 25.9993 10.0048
1 18.1748 26.8252 10.798
1 18.9685 26.0315 10.798
1 18.9603 26.8095 9.98112
1 18.2012 25.9992 9.9884
1 19.7622 26.8252 10.798
1 20.5559 26.0315 10.798
1 20.5675 26.806 9.996
1 19.774 26.0224 10.0225
1 21.3496 26.8252 10.798
1 22.1433 26.0315 10.798
1 22.1558 26.8226 9.985
1 21.3827 26.0238 10.0346
1 22.937 26.8252 10.798
1 23.7307 26.0315 10.798
1 23.7188 26.8199 10.0073
1 22.9391 26.0313 9.98433
1 24.5244 26.8252 10.798
1 25.3181 26.0315 10.798
1 25.3203 26.818 9.9824
1 24.5249 26.0398 9.99043
1 26.1118 26.8252 10.798
1 26.9055 26.0315 10.798
1 26.9223 26.8077 10.009
1 26.1249 26.0311 9.99545
1 27.6992 26.8252 10.798
1 28.4929 26.0315 10.798
1 28.482 26.8046 9.99476
1 27.7025 26.032 10.0077
1 29.2866 26.8252 10.798
1 0.08031 26.0315 10.798
1 0.0939363 26.8262 10.0066
1 29.289 26.0406 9.99815
1 0.874011 26.8252 10.798
1 1.66771 26.0315 10.798
1 1.65097 26.8352 10.0003
1 0.877516 26.0372 9.9955
1 2.46141 26.8252 10.798
1 3.25511 26.0315 10.798
1 3.24603 26.8444 9.99039
1 2.46643 26.0603 9.9863
1 4.04881 26.8252 10.798
1 4.84251 26.0315 10.798
1 4.85395 26.7964 9.99678
1 4.04584 26.0319 9.98492
1 5.63621 26.8252 10.798
1 6.42991 26.0315 10.798
1 6.40715 26.8126 9.99362
1 5.64782 26.04 9.98328
1 7.22361 26.8252 10.798
1 8.01732 26.0315 10.798
1 8.0097 26.8297 10.0028
1 7.22142 26.0421 10.0102
1 8.81102 26.8252 10.798
1 9.60472 26.0315 10.798
1 9.60603 26.8172 10.0179
1 8.79778 26.0176 10.0234
1 10.3984 26.8252 10.798
1 11.1921 26.0315 10.798
1 11.1776 26.808 10.0133
1 10.3859 26.0256 10.0166
1 11.9858 26.8252 10.798
1 12.7795 26.0315 10.798
1 12.7528 26.8208 10.0265
1 11.9429 26.0086 9.98523
1 13.5732 26.8252 10.798
1 14.3669 26.0315 10.798
1 14.2974 26.7962 9.98833
1 13.5323 26.0232 9.99503
1 15 25.2378 10.798
1 15.7937 24.4441 10.798
1 15.8324 25.2181 9.99206
1 15.0624 24.4479 9.96473
1 16.5874 25.2378 10.798
1 17.3811 24.4441 10.798
1 17.3926 25.234 9.98502
1 16.6077 24.4293 9.97963
1 18.1748 25.2378 10.798
1 18.9685 24.4441 10.798
1 18.9948 25.2163 10.0021
1 18.1817 24.4218 9.99502
1 19.7622 25.2378 10.798
1 20.5559 24.4441 10.798
1 20.56 25.238 10.0089
1 19.7704 24.448 10.0085
1 21.3496 25.2378 10.798
1 22.1433 24.4441 10.798
1 22.1692 25.2339 10.0086
1 21.3552 24.4447 10.0108
1 22.937 25.2378 10.798
1 23.7307 24.4441 10.798
1 23.7335 25.2252 10.0062
1 22.9279 24.4243 10.0088
1 24.5244 25.2378 10.798
1 25.3181 24.4441 10.798
1 25.3314 25.2412 10.0214
1 24.5314 24.4096 10.0066
1 26.1118 25.2378 10.798
1 26.9055 24.4441 10.798
1 26.9172 25.2533 9.99347
1 26.1205 24.4544 10.0108
1 27.6992 25.2378 10.798
1 28.4929 24.4441 10.798
1 28.4841 25.2196 10.0009
1 27.6818 24.4459 10.0023
1 29.2866 25.2378 10.798
1 0.08031 24.4441 10.798
1 0.0849594 25.2364 10.0092
1 29.3064 24.425 10.0341
1 0.874011 25.2378 10.798
1 1.66771 24.4441 10.798
1 1.66438 25.2449 9.99819
1 0.89414 24.4345 9.98812
1 2.46141 25.2378 10.798
1 3.25511 24.4441 10.798
1 3.2487 25.2319 9.99762
1 2.45221 24.4414 9.98834
1 4.04881 25.2378 10.798
1 4.84251 24.4441 10.798
1 4.83933 25.259 10.0256
1 4.02223 24.4385 10.0036
1 5.63621 25.2378 10.798
1 6.42991 24.4441 10.798
1 6.4524 25.2457 9.99755
1 5.63194 24.46 9.99819
1 7.22361 25.2378 10.798
1 8.01732 24.4441 10.798
1 7.99717 25.2273 9.97715
1 7.21222 24.4553 9.99168
1 8.81102 25.2378 10.798
1 9.60472 24.4441 10.798
1 9.608 25.237 10.0233
1 8.7908 24.4363 10.0104
1 10.3984 25.2378 10.798
1 11.1921 24.4441 10.798
1 11.1887 25.2262 10.0226
1 10.3621 24.4237 10.0164
1 11.9858 25.2378 10.798
1 12.7795 24.4441 10.798
1 12.7688 25.2673 10.0218
1 11.9772 24.4452 9.99899
1 13.5732 25.2378 10.798
1 14.3669 24.4441 10.798
1 14.3132 25.2368 9.97075
1 13.5267 24.4424 9.98248
1 15 23.6504 10.798
1 15.7937 22.8567 10.798
1 15.8052 23.6678 10.0058
1 15.0738 22.8567 9.98054
1 16.5874 23.6504 10.798
1 17.3811 22.8567 10.798
1 17.3927 23.6493 9.99279
1 16.612 22.878 10.0066
1 18.1748 23.6504 10.798
1 18.9685 22.8567 10.798
1 18.9993 23.6368 10.0232
1 18.1702 22.8623 10.0063
1 19.7622 23.6504 10.798
1 20.5559 22.8567 10.798
1 20.5378 23.6352 10.0043
1 19.7777 22.8556 10.0009
1 21.3496 23.6504 10.798
1 22.1433 22.8567 10.798
1 22.1283 23.6467 9.98408
1 21.3342 22.8682 10.0127
1 22.937 23.6504 10.798
1 23.7307 22.8567 10.798
1 23.7433 23.6559 10.0077
1 22.9146 22.8404 10.0192
1 24.5244 23.6504 10.798
1 25.3181 22.8567 10.798
1 25.3116 23.6299 10.0042
1 24.5249 22.8327 10.0184
1 26.1118 23.6504 10.798
1 26.9055 22.8567 10.798
1 26.9007 23.6726 10.0109
1 26.1242 22.8319 10.0149
1 27.6992 23.6504 10.798
1 28.4929 22.8567 10.798
1 28.4801 23.6399 10.0048
1 27.6775 22.8575 10.0029
1 29.2866 23.6504 10.798
1 0.08031 22.8567 10.798
1 0.0844052 23.6494 10.0121
1 29.2703 22.848 9.9995
1 0.874011 23.6504 10.798
1 1.66771 22.8567 10.798
1 1.67351 23.6499 10.0097
1 0.887278 22.8673 9.98431
1 2.46141 23.6504 10.798
1 3.25511 22.8567 10.798
1 3.23769 23.6439 9.99748
1 2.46058 22.8484 10.0207
1 4.04881 23.6504 10.798
1 4.84251 22.8567 10.798
1 4.82095 23.6677 9.98583
1 4.02359 22.8614 10.0202
1 5.63621 23.6504 10.798
1 6.42991 22.8567 10.798
1 6.42808 23.666 9.98775
1 5.62934 22.8355 10.0258
1 7.22361 23.6504 10.798
1 8.01732 22.8567 10.798
1 8.0061 23.6496 9.98862
1 7.2142 22.8582 10.0073
1 8.81102 23.6504 10.798
1 9.60472 22.8567 10.798
1 9.57049 23.6397 9.99752
1 8.81003 22.8399 10.0054
1 10.3984 23.6504 10.798
1 11.1921 22.8567 10.798
1 11.1784 23.6648 10.0131
1 10.3825 22.8458 10.0223
1 11.9858 23.6504 10.798
1 12.7795 22.8567 10.798
1 12.7547 23.6537 10.0095
1 11.9576 22.8869 10.0035
1 13.5732 23.6504 10.798
1 14.3669 22.8567 10.798
1 14.3068 23.6463 9.96044
1 13.5817 22.8426 9.98434
1 15 22.063 10.798
1 15.7937 21.2693 10.798
1 15.8166 22.0372 10.0196
1 15.063 21.263 9.98934
1 16.5874 22.063 10.798
1 17.3811 21.2693 10.798
1 17.3972 22.0594 9.99455
1 16.5924 21.271 9.99818
1 18.1748 22.063 10.798
1 18.9685 21.2693 10.798
1 18.9881 22.0729 9.98771
1 18.1588 21.2561 10.0463
1 19.7622 22.063 10.798
1 20.5559 21.2693 10.798
1 20.5669 22.0539 10.0001
1 19.7827 21.2657 10.0146
1 21.3496 22.063 10.798
1 22.1433 21.2693 10.798
1 22.1216 22.0944 10
1 21.3321 21.2541 10.0172
1 22.937 22.063 10.798
1 23.7307 21.2693 10.798
1 23.7362 22.0748 10.0069
1 22.9397 21.2825 10.0176
1 24.5244 22.063 10.798
1 25.3181 21.2693 10.798
1 25.3408 22.0761 10.0086
1 24.5463 21.2859 10.0054
1 26.1118 22.063 10.798
1 26.9055 21.2693 10.798
1 26.8797 22.0477 9.99831
1 26.1203 21.2704 10.0137
1 27.6992 22.063 10.798
1 28.4929 21.2693 10.798
1 28.4929 22.0562 10.0196
1 27.7062 21.2616 9.98995
1 29.2866 22.063 10.798
1 0.08031 21.2693 10.798
1 0.0859996 22.0678 10.0306
1 29.2706 21.2731 10.0162
1 0.874011 22.063 10.798
1 1.66771 21.2693 10.798
1 1.64588 22.0682 9.98524
1 0.890953 21.3024 9.99845
1 2.46141 22.063 10.798
1 3.25511 21.2693 10.798
1 3.25815 22.0745 10.0211
1 2.44996 21.281 10.0003
1 4.04881 22.063 10.798
1 4.84251 21.2693 10.798
1 4.83349 22.0618 10.0075
1 4.01399 21.2798 9.98824
1 5.63621 22.063 10.798
1 6.42991 21.2693 10.798
1 6.40983 22.0639 10.0131
1 5.63394 21.2589 9.99548
1 7.22361 22.063 10.798
1 8.01732 21.2693 10.798
1 7.99694 22.059 9.99221
1 7.21056 21.2466 10.0097
1 8.81102 22.063 10.798
1 9.60472 21.2693 10.798
1 9.5863 22.0424 10.0032
1 8.76948 21.247 9.98843
1 10.3984 22.063 10.798
1 11.1921 21.2693 10.798
1 11.1605 22.0655 10.0218
1 10.3794 21.2659 10.019
1 11.9858 22.063 10.798
1 12.7795 21.2693 10.798
1 12.7732 22.0659 9.98021
1 11.976 21.2533 9.98151
1 13.5732 22.063 10.798
1 14.3669 21.2693 10.798
1 14.2826 22.0549 9.98022
1 13.5318 21.2718 10.0105
1 15 20.4756 10.798
1 15.7937 19.6819 10.798
1 15.8321 20.4867 9.99049
1 15.0642 19.6834 9.96556
1 16.5874 20.4756 10.798
1 17.3811 19.6819 10.798
1 17.3816 20.4707 10.0211
1 16.6034 19.6888 9.98368
1 18.1748 20.4756 10.798
1 18.9685 19.6819 10.798
1 18.9657 20.469 9.98975
1 18.1701 19.6856 10.0165
1 19.7622 20.4756 10.798
1 20.5559 19.6819 10.798
1 20.5386 20.491 10.0052
1 19.7387 19.6902 10.0126
1 21.3496 20.4756 10.798
1 22.1433 19.6819 10.798
1 22.1577 20.4679 10.0281
1 21.3511 19.6922 9.98855
1 22.937 20.4756 10.798
1 23.7307 19.6819 10.798
1 23.7387 20.4933 10.0058
1 22.9326 19.6844 10.0214
1 24.5244 20.4756 10.798
1 25.3181 19.6819 10.798
1 25.3171 20.5086 10.0401
1 24.495 19.7079 10.0119
1 26.1118 20.4756 10.798
1 26.9055 19.6819 10.798
1 26.9023 20.4679 10.0155
1 26.0853 19.6817 10.0316
1 27.6992 20.4756 10.798
1 28.4929 19.6819 10.798
1 28.4855 20.4794 9.99704
1 27.7077 19.695 10.0132
1 29.2866 20.4756 10.798
1 0.08031 19.6819 10.798
1 0.0621638 20.4832 9.99053
1 29.2512 19.6816 10.0007
1 0.874011 20.4756 10.798
1 1.66771 19.6819 10.798
1 1.66877 20.4853 10.002
1 0.886837 19.7007 9.99277
1 2.46141 20.4756 10.798
1 3.25511 19.6819 10.798
1 3.22763 20.4899 9.99824
1 2.44045 19.6915 10.0095
1 4.04881 20.4756 10.798
1 4.84251 19.6819 10.798
1 4.85537 20.4666 10.005
1 4.03904 19.6492 10.0095
1 5.63621 20.4756 10.798
1 6.42991 19.6819 10.798
1 6.43004 20.4753 10.0194
1 5.63701 19.68 10.007
1 7.22361 20.4756 10.798
1 8.01732 19.6819 10.798
1 8.03468 20.4932 10.0011
1 7.21814 19.6871 9.99112
1 8.81102 20.4756 10.798
1 9.60472 19.6819 10.798
1 9.58846 20.479 10.0049
1 8.81294 19.6662 9.99957
1 10.3984 20.4756 10.798
1 11.1921 19.6819 10.798
1 11.1842 20.4864 10.0021
1 10.4072 19.6863 9.99778
1 11.9858 20.4756 10.798
1 12.7795 19.6819 10.798
1 12.7313 20.4649 10.0112
1 11.9563 19.6823 10.0036
1 13.5732 20.4756 10.798
1 14.3669 19.6819 10.798
1 14.3071 20.4966 9.96726
1 13.5676 19.6879 9.99487
1 15 18.8882 10.798
1 15.7937 18.0945 10.798
1 15.8127 18.9095 9.98466
1 15.0738 18.0875 9.95945
1 16.5874 18.8882 10.798
1 17.3811 18.0945 10.798
1 17.3734 18.9053 9.99859
1 16.5789 18.121 10.0028
1 18.1748 18.8882 10.798
1 18.9685 18.0945 10.798
1 18.9836 18.8993 10.0196
1 18.1513 18.1103 10.0227
1 19.7622 18.8882 10.798
1 20.5559 18.0945 10.798
1 20.5634 18.8966 10.0174
1 19.7619 18.0796 9.99954
1 21.3496 18.8882 10.798
1 22.1433 18.0945 10.798
1 22.147 18.8934 10.0054
1 21.3561 18.097 9.9984
1 22.937 18.8882 10.798
1 23.7307 18.0945 10.798
1 23.7359 18.8847 10.0097
1 22.9382 18.0863 10.0217
1 24.5244 18.8882 10.798
1 25.3181 18.0945 10.798
1 25.2991 18.8917 9.99384
1 24.5259 18.0848 10.0122
1 26.1118 18.8882 10.798
1 26.9055 18.0945 10.798
1 26.9009 18.9178 9.9881
1 26.1199 18.095 9.99718
1 27.6992 18.8882 10.798
1 28.4929 18.0945 10.798
1 28.4943 18.8745 10.0216
1 27.6659 18.1094 10.0171
1 29.2866 18.8882 10.798
1 0.08031 18.0945 10.798
1 0.0614381 18.8771 10.0084
1 29.286 18.0647 10.0216
1 0.874011 18.8882 10.798
1 1.66771 18.0945 10.798
1 1.66432 18.8864 9.99597
1 0.857332 18.1116 9.98996
1 2.46141 18.8882 10.798
1 3.25511 18.0945 10.798
1 3.24459 18.8745 9.98902
1 2.44073 18.112 9.99131
1 4.04881 18.8882 10.798
1 4.84251 18.0945 10.798
1 4.861 18.8828 10.0284
1 4.04441 18.1145 10.0192
1 5.63621 18.8882 10.798
1 6.42991 18.0945 10.798
1 6.40713 18.8701 10.0017
1 5.63263 18.0756 10.0083
1 7.22361 18.8882 10.798
1 8.01732 18.0945 10.798
1 8.00742 18.9091 9.99903
1 7.22176 18.1033 10.0149
1 8.81102 18.8882 10.798
1 9.60472 18.0945 10.798
1 9.58421 18.8787 9.9979
1 8.7857 18.0973 9.99571
1 10.3984 18.8882 10.798
1 11.1921 18.0945 10.798
1 11.1982 18.9001 9.97023
1 10.3895 18.0951 10.0065
1 11.9858 18.8882 10.798
1 12.7795 18.0945 10.798
1 12.7543 18.8937 10.003
1 11.9811 18.0944 10.0274
1 13.5732 18.8882 10.798
1 14.3669 18.0945 10.798
1 14.3014 18.8884 9.97283
1 13.5302 18.0837 9.99419
1 15 17.3008 10.798
1 15.7937 16.5071 10.798
1 15.8337 17.3304 9.99703
1 15.0545 16.5051 9.97759
1 16.5874 17.3008 10.798
1 17.3811 16.5071 10.798
1 17.3927 17.3022 10.0123
1 16.6016 16.4932 9.98514
1 18.1748 17.3008 10.798
1 18.9685 16.5071 10.798
1 18.9689 17.3019 10.0304
1 18.1878 16.4921 10.014
1 19.7622 17.3008 10.798
1 20.5559 16.5071 10.798
1 20.5546 17.276 10.0114
1 19.7656 16.482 9.99596
1 21.3496 17.3008 10.798
1 22.1433 16.5071 10.798
1 22.149 17.3002 9.99866
1 21.3709 16.5077 10.0242
1 22.937 17.3008 10.798
1 23.7307 16.5071 10.798
1 23.7302 17.3124 10.0014
1 22.9427 16.49 10.0195
1 24.5244 17.3008 10.798
1 25.3181 16.5071 10.798
1 25.3265 17.2942 10.0112
1 24.5015 16.4935 10.001
1 26.1118 17.3008 10.798
1 26.9055 16.5071 10.798
1 26.9015 17.2707 9.99412
1 26.1104 16.4989 10.0046
1 27.6992 17.3008 10.798
1 28.4929 16.5071 10.798
1 28.496 17.2616 10.0012
1 27.6895 16.5119 10.0261
1 29.2866 17.3008 10.798
1 0.08031 16.5071 10.798
1 0.0788264 17.2838 9.99848
1 29.2693 16.4988 9.99709
1 0.874011 17.3008 10.798
1 1.66771 16.5071 10.798
1 1.64695 17.3357 10.0173
1 0.868795 16.5132 10.0099
1 2.46141 17.3008 10.798
1 3.25511 16.5071 10.798
1 3.25184 17.3176 10.0013
1 2.47439 16.4927 10.0025
1 4.04881 17.3008 10.798
1 4.84251 16.5071 10.798
1 4.81985 17.3287 9.99966
1 4.0255 16.5032 10.0108
1 5.63621 17.3008 10.798
1 6.42991 16.5071 10.798
1 6.4227 17.3422 10.0332
1 5.63853 16.5254 9.98582
1 7.22361 17.3008 10.798
1 8.01732 16.5071 10.798
1 8.00833 17.3057 9.99673
1 7.17724 16.493 10.0186
1 8.81102 17.3008 10.798
1 9.60472 16.5071 10.798
1 9.56434 17.3341 10.0128
1 8.80037 16.5069 10.0015
1 10.3984 17.3008 10.798
1 11.1921 16.5071 10.798
1 11.1944 17.3104 10.0143
1 10.3897 16.548 10.0236
1 11.9858 17.3008 10.798
1 12.7795 16.5071 10.798
1 12.7683 17.3132 9.98337
1 11.9603 16.5113 10.0097
1 13.5732 17.3008 10.798
1 14.3669 16.5071 10.798
1 14.2866 17.3034 9.95684
1 13.5521 16.5271 9.97408
1 15 15.7134 10.798
1 15.7937 14.9197 10.798
1 15.8453 15.6976 9.99142
1 15.0785 14.9479 9.97415
1 16.5874 15.7134 10.798
1 17.3811 14.9197 10.798
1 17.3836 15.7071 10.0103
1 16.6304 14.9126 9.98622
1 18.1748 15.7134 10.798
1 18.9685 14.9197 10.798
1 19.0025 15.6735 9.9931
1 18.142 14.9076 10.0233
1 19.7622 15.7134 10.798
1 20.5559 14.9197 10.798
1 20.5487 15.7203 9.98958
1 19.7679 14.8973 10.0029
1 21.3496 15.7134 10.798
1 22.1433 14.9197 10.798
1 22.1213 15.6948 10.0158
1 21.3364 14.9375 10.0235
1 22.937 15.7134 10.798
1 23.7307 14.9197 10.798
1 23.7278 15.7223 10.0436
1 22.9052 14.9126 10.0052
1 24.5244 15.7134 10.798
1 25.3181 14.9197 10.798
1 25.3009 15.7012 10.0059
1 24.5444 14.9177 10.0137
1 26.1118 15.7134 10.798
1 26.9055 14.9197 10.798
1 26.8925 15.7033 10.0345
1 26.0886 14.9158 10.0008
1 27.6992 15.7134 10.798
1 28.4929 14.9197 10.798
1 28.4818 15.6996 10.0048
1 27.7104 14.9132 10.0302
1 29.2866 15.7134 10.798
1 0.08031 14.9197 10.798
1 0.0881769 15.7239 9.98831
1 29.2828 14.9269 10.0244
1 0.874011 15.7134 10.798
1 1.66771 14.9197 10.798
1 1.66849 15.7482 9.9888
1 0.87334 14.9262 10.0062
1 2.46141 15.7134 10.798
1 3.25511 14.9197 10.798
1 3.25701 15.7119 10.0024
1 2.46379 14.9538 10.0233
1 4.04881 15.7134 10.798
1 4.84251 14.9197 10.798
1 4.84275 15.7151 10.0303
1 4.05211 14.9188 10.02
1 5.63621 15.7134 10.798
1 6.42991 14.9197 10.798
1 6.41722 15.7057 9.99395
1 5.63938 14.9163 10.0017
1 7.22361 15.7134 10.798
1 8.01732 14.9197 10.798
1 8.00699 15.7275 9.97021
1 7.20343 14.9107 9.99815
1 8.81102 15.7134 10.798
1 9.60472 14.9197 10.798
1 9.60688 15.7345 9.99922
1 8.81359 14.9064 10.0226
1 10.3984 15.7134 10.798
1 11.1921 14.9197 10.798
1 11.1722 15.7164 10.0108
1 10.3832 14.9295 10.0195
1 11.9858 15.7134 10.798
1 12.7795 14.9197 10.798
1 12.7576 15.7421 9.99426
1 11.9813 14.9329 10.0299
1 13.5732 15.7134 10.798
1 14.3669 14.9197 10.798
1 14.2795 15.7356 10.0019
1 13.5382 14.9159 10.0004
1 15 14.126 10.798
1 15.7937 13.3323 10.798
1 15.8184 14.1168 10.0215
1 15.049 13.3372 9.99799
1 16.5874 14.126 10.798
1 17.3811 13.3323 10.798
1 17.3754 14.0998 10.0259
1 16.6031 13.3272 10.0053
1 18.1748 14.126 10.798
1 18.9685 13.3323 10.798
1 18.9784 14.1371 10.0333
1 18.1915 13.3415 10.0139
1 19.7622 14.126 10.798
1 20.5559 13.3323 10.798
1 20.5483 14.1374 10.0102
1 19.7317 13.3175 10.0084
1 21.3496 14.126 10.798
1 22.1433 13.3323 10.798
1 22.1413 14.1128 10.0183
1 21.3504 13.3366 10.0217
1 22.937 14.126 10.798
1 23.7307 13.3323 10.798
1 23.7089 14.1159 10.007
1 22.9199 13.3359 10.0163
1 24.5244 14.126 10.798
1 25.3181 13.3323 10.798
1 25.3264 14.1158 10.006
1 24.5135 13.3368 10.0039
1 26.1118 14.126 10.798
1 26.9055 13.3323 10.798
1 26.9023 14.1197 10.012
1 26.1208 13.329 10.0044
1 27.6992 14.126 10.798
1 28.4929 13.3323 10.798
1 28.497 14.1209 10.0298
1 27.7151 13.3143 10.0037
1 29.2866 14.126 10.798
1 0.08031 13.3323 10.798
1 0.0883139 14.1242 10.0145
1 29.2456 13.3317 9.99185
1 0.874011 14.126 10.798
1 1.66771 13.3323 10.798
1 1.63943 14.1168 9.98736
1 0.873839 13.3318 9.99427
1 2.46141 14.126 10.798
1 3.25511 13.3323 10.798
1 3.24735 14.123 9.98692
1 2.46008 13.3205 9.99611
1 4.04881 14.126 10.798
1 4.84251 13.3323 10.798
1 4.84501 14.1091 9.9983
1 4.04869 13.3556 10.0227
1 5.63621 14.126 10.798
1 6.42991 13.3323 10.798
1 6.39163 14.1075 10.0131
1 5.63274 13.3487 10.0183
1 7.22361 14.126 10.798
1 8.01732 13.3323 10.798
1 8.0349 14.1252 10.0073
1 7.17314 13.3343 10.0002
1 8.81102 14.126 10.798
1 9.60472 13.3323 10.798
1 9.62137 14.1417 10.0002
1 8.79119 13.3378 9.98603
1 10.3984 14.126 10.798
1 11.1921 13.3323 10.798
1 11.1788 14.122 10.0313
1 10.3842 13.3328 9.99171
1 11.9858 14.126 10.798
1 12.7795 13.3323 10.798
1 12.7732 14.1271 9.99949
1 11.9978 13.3572 9.98181
1 13.5732 14.126 10.798
1 14.3669 13.3323 10.798
1 14.2801 14.1607 9.95143
1 13.5467 13.3248 9.96466
1 15 12.5386 10.798
1 15.7937 11.7449 10.798
1 15.8415 12.5505 10.0023
1 15.0855 11.7248 9.96089
1 16.5874 12.5386 10.798
1 17.3811 11.7449 10.798
1 17.3912 12.5341 9.99789
1 16.603 11.7309 9.96111
1 18.1748 12.5386 10.798
1 18.9685 11.7449 10.798
1 18.9897 12.5379 9.98126
1 18.1706 11.7571 10.0222
1 19.7622 12.5386 10.798
1 20.5559 11.7449 10.798
1 20.5574 12.5485 9.99393
1 19.758 11.7423 10.0108
1 21.3496 12.5386 10.798
1 22.1433 11.7449 10.798
1 22.1344 12.5451 10.0074
1 21.3458 11.7287 10.0285
1 22.937 12.5386 10.798
1 23.7307 11.7449 10.798
1 23.7275 12.5421 10.019
1 22.9275 11.7458 10.0003
1 24.5244 12.5386 10.798
1 25.3181 11.7449 10.798
1 25.3179 12.5412 10.0086
1 24.5399 11.7419 10.0099
1 26.1118 12.5386 10.798
1 26.9055 11.7449 10.798
1 26.8828 12.5405 10.0225
1 26.0865 11.7248 9.97384
1 27.6992 12.5386 10.798
1 28.4929 11.7449 10.798
1 28.4835 12.4998 10.008
1 27.6813 11.7533 10.0033
1 29.2866 12.5386 10.798
1 0.08031 11.7449 10.798
1 0.0989519 12.5521 10.0179
1 29.3174 11.7436 10.0228
1 0.874011 12.5386 10.798
1 1.66771 11.7449 10.798
1 1.65109 12.5226 10.0008
1 0.831323 11.7358 10.0137
1 2.46141 12.5386 10.798
1 3.25511 11.7449 10.798
1 3.24405 12.5299 10.0117
1 2.4435 11.7299 10.01
1 4.04881 12.5386 10.798
1 4.84251 11.7449 10.798
1 4.85488 12.5328 9.98799
1 4.06074 11.7376 10.0278
1 5.63621 12.5386 10.798
1 6.42991 11.7449 10.798
1 6.40283 12.546 10.0046
1 5.63748 11.7477 9.9864
1 7.22361 12.5386 10.798
1 8.01732 11.7449 10.798
1 7.99878 12.5303 10.0198
1 7.20351 11.746 10.0103
1 8.81102 12.5386 10.798
1 9.60472 11.7449 10.798
1 9.59063 12.5519 9.99724
1 8.7988 11.7507 10.0115
1 10.3984 12.5386 10.798
1 11.1921 11.7449 10.798
1 11.1901 12.5302 9.98748
1 10.3697 11.7664 9.98801
1 11.9858 12.5386 10.798
1 12.7795 11.7449 10.798
1 12.7694 12.5295 9.98211
1 11.9466 11.7231 10.0091
1 13.5732 12.5386 10.798
1 14.3669 11.7449 10.798
1 14.309 12.5377 9.97619
1 13.5173 11.7499 9.98142
1 15 10.9512 10.798
1 15.7937 10.1575 10.798
1 15.8298 10.9267 10.01
1 15.0697 10.1432 9.95227
1 16.5874 10.9512 10.798
1 17.3811 10.1575 10.798
1 17.4003 10.9319 10.0093
1 16.6302 10.1298 9.99335
1 18.1748 10.9512 10.798
1 18.9685 10.1575 10.798
1 18.9892 10.9474 10.0177
1 18.1627 10.1426 10.0131
1 19.7622 10.9512 10.798
1 20.5559 10.1575 10.798
1 20.5517 10.9603 9.99007
1 19.7688 10.1779 10.0257
1 21.3496 10.9512 10.798
1 22.1433 10.1575 10.798
1 22.1409 10.9348 9.99127
1 21.343 10.142 10.0161
1 22.937 10.9512 10.798
1 23.7307 10.1575 10.798
1 23.7422 10.9554 10.012
1 22.9335 10.1703 10.02
1 24.5244 10.9512 10.798
1 25.3181 10.1575 10.798
1 25.298 10.9555 10.0051
1 24.5022 10.162 10.0035
1 26.1118 10.9512 10.798
1 26.9055 10.1575 10.798
1 26.8784 10.9371 9.99524
1 26.0779 10.1334 9.99587
1 27.6992 10.9512 10.798
1 28.4929 10.1575 10.798
1 28.4878 10.9546 10.0017
1 27.6974 10.1495 9.99968
1 29.2866 10.9512 10.798
1 0.08031 10.1575 10.798
1 0.0682771 10.9445 10.0268
1 29.2817 10.1359 10.0073
1 0.874011 10.9512 10.798
1 1.66771 10.1575 10.798
1 1.62646 10.9492 10.0184
1 0.854991 10.1342 9.99074
1 2.46141 10.9512 10.798
1 3.25511 10.1575 10.798
1 3.27604 10.9528 9.99102
1 2.43206 10.169 10.0215
1 4.04881 10.9512 10.798
1 4.84251 10.1575 10.798
1 4.84134 10.9375 10.012
1 4.04246 10.1618 10.0114
1 5.63621 10.9512 10.798
1 6.42991 10.1575 10.798
1 6.44619 10.9281 10.009
1 5.64715 10.1713 9.99311
1 7.22361 10.9512 10.798
1 8.01732 10.1575 10.798
1 8.00341 10.9446 9.99789
1 7.23234 10.1553 10.0206
1 8.81102 10.9512 10.798
1 9.60472 10.1575 10.798
1 9.592 10.9612 10.0228
1 8.80127 10.1535 10.003
1 10.3984 10.9512 10.798
1 11.1921 10.1575 10.798
1 11.1512 10.9663 9.99629
1 10.3996 10.1447 9.99908
1 11.9858 10.9512 10.798
1 12.7795 10.1575 10.798
1 12.7546 10.9349 9.98491
1 11.9678 10.1496 10.0028
1 13.5732 10.9512 10.798
1 14.3669 10.1575 10.798
1 14.2998 10.9634 9.98209
1 13.5791 10.1732 10.0031
1 15 9.36379 10.798
1 15.7937 8.57009 10.798
1 15.816 9.34578 9.9885
1 15.0603 8.5615 9.98851
1 16.5874 9.36379 10.798
1 17.3811 8.57009 10.798
1 17.403 9.3442 9.9813
1 16.6236 8.55845 9.98201
1 18.1748 9.36379 10.798
1 18.9685 8.57009 10.798
1 18.9893 9.35928 10.0264
1 18.1897 8.57012 9.97372
1 19.7622 9.36379 10.798
1 20.5559 8.57009 10.798
1 20.5676 9.36037 10.0015
1 19.7794 8.57109 9.99187
1 21.3496 9.36379 10.798
1 22.1433 8.57009 10.798
1 22.1524 9.36978 10.0021
1 21.3831 8.58936 10.0203
1 22.937 9.36379 10.798
1 23.7307 8.57009 10.798
1 23.7332 9.36719 10.0113
1 22.9069 8.57588 9.98946
1 24.5244 9.36379 10.798
1 25.3181 8.57009 10.798
1 25.2897 9.36027 9.99084
1 24.509 8.56909 10.0042
1 26.1118 9.36379 10.798
1 26.9055 8.57009 10.798
1 26.9112 9.36854 10.0043
1 26.1008 8.59891 10.0024
1 27.6992 9.36379 10.798
1 28.4929 8.57009 10.798
1 28.4846 9.377 10.0093
1 27.6753 8.57103 10.003
1 29.2866 9.36379 10.798
1 0.08031 8.57009 10.798
1 0.0705215 9.34848 9.98405
1 29.2935 8.56494 10.0205
1 0.874011 9.36379 10.798
1 1.66771 8.57009 10.798
1 1.6643 9.37943 10.0001
1 0.862891 8.57824 10.0076
1 2.46141 9.36379 10.798
1 3.25511 8.57009 10.798
1 3.22746 9.35989 10.0084
1 2.45386 8.56774 10.0131
1 4.04881 9.36379 10.798
1 4.84251 8.57009 10.798
1 4.85447 9.40348 9.99232
1 4.05063 8.59552 9.99652
1 5.63621 9.36379 10.798
1 6.42991 8.57009 10.798
1 6.42012 9.34771 9.991
1 5.63166 8.5895 9.97434
1 7.22361 9.36379 10.798
1 8.01732 8.57009 10.798
1 8.03181 9.38239 9.98611
1 7.21327 8.57667 10.0016
1 8.81102 9.36379 10.798
1 9.60472 8.57009 10.798
1 9.61274 9.36129 10.0107
1 8.80981 8.58572 10.0088
1 10.3984 9.36379 10.798
1 11.1921 8.57009 10.798
1 11.182 9.36107 9.99836
1 10.4016 8.57741 10.0022
1 11.9858 9.36379 10.798
1 12.7795 8.57009 10.798
1 12.7702 9.35971 9.99163
1 11.9489 8.56023 10.0027
1 13.5732 9.36379 10.798
1 14.3669 8.57009 10.798
1 14.3134 9.35777 9.97945
1 13.54 8.56123 10.0069
1 15 7.77639 10.798
1 15.7937 6.98268 10.798
1 15.784 7.78918 9.99466
1 15.0521 6.97439 9.92988
1 16.5874 7.77639 10.798
1 17.3811 6.98268 10.798
1 17.4054 7.75451 9.98078
1 16.5962 6.99748 9.96972
1 18.1748 7.77639 10.798
1 18.9685 6.98268 10.798
1 19.007 7.79094 10.0043
1 18.1981 6.98399 10.0145
1 19.7622 7.77639 10.798
1 20.5559 6.98268 10.798
1 20.5821 7.78169 10.0006
1 19.7794 7.02143 10.0277
1 21.3496 7.77639 10.798
1 22.1433 6.98268 10.798
1 22.1333 7.79725 9.9943
1 21.3531 7.01018 10.0083
1 22.937 7.77639 10.798
1 23.7307 6.98268 10.798
1 23.7111 7.77069 10.0103
1 22.9242 6.95726 9.99432
1 24.5244 7.77639 10.798
1 25.3181 6.98268 10.798
1 25.3022 7.75492 9.98929
1 24.5303 6.98493 9.98956
1 26.1118 7.77639 10.798
1 26.9055 6.98268 10.798
1 26.9105 7.79378 9.99422
1 26.1092 6.97854 10.0221
1 27.6992 7.77639 10.798
1 28.4929 6.98268 10.798
1 28.5019 7.77681 10.0236
1 27.6968 6.97701 9.99926
1 29.2866 7.77639 10.798
1 0.08031 6.98268 10.798
1 0.0834675 7.78664 10.0001
1 29.3074 6.98093 10.0248
1 0.874011 7.77639 10.798
1 1.66771 6.98268 10.798
1 1.68621 7.79588 9.99715
1 0.875278 6.98559 9.97817
1 2.46141 7.77639 10.798
1 3.25511 6.98268 10.798
1 3.25582 7.79266 10.0192
1 2.46734 6.97983 9.99552
1 4.04881 7.77639 10.798
1 4.84251 6.98268 10.798
1 4.833 7.77842 10.0105
1 4.04165 6.97711 9.9839
1 5.63621 7.77639 10.798
1 6.42991 6.98268 10.798
1 6.41724 7.7564 9.98968
1 5.6358 6.98293 10.0018
1 7.22361 7.77639 10.798
1 8.01732 6.98268 10.798
1 8.0301 7.78345 10.026
1 7.25451 6.96509 9.99359
1 8.81102 7.77639 10.798
1 9.60472 6.98268 10.798
1 9.58422 7.79154 9.98274
1 8.79718 6.97517 10.0076
1 10.3984 7.77639 10.798
1 11.1921 6.98268 10.798
1 11.1733 7.79277 10.0281
1 10.374 7.00648 10.02
1 11.9858 7.77639 10.798
1 12.7795 6.98268 10.798
1 12.7629 7.78832 9.9904
1 11.9696 7.02598 10.0053
1 13.5732 7.77639 10.798
1 14.3669 6.98268 10.798
1 14.2885 7.77366 9.97376
1 13.5352 6.97701 9.99838
1 15 6.18898 10.798
1 15.7937 5.39528 10.798
1 15.8256 6.18562 9.99026
1 15.0731 5.42049 9.96153
1 16.5874 6.18898 10.798
1 17.3811 5.39528 10.798
1 17.3813 6.20313 9.98996
1 16.6099 5.4083 9.96547
1 18.1748 6.18898 10.798
1 18.9685 5.39528 10.798
1 18.9782 6.1931 9.99582
1 18.1771 5.3991 10.0389
1 19.7622 6.18898 10.798
1 20.5559 5.39528 10.798
1 20.5639 6.2009 10.0315
1 19.7806 5.40492 10.0048
1 21.3496 6.18898 10.798
1 22.1433 5.39528 10.798
1 22.1462 6.182 10.0046
1 21.3405 5.41244 9.992
1 22.937 6.18898 10.798
1 23.7307 5.39528 10.798
1 23.7067 6.19595 10.0066
1 22.9414 5.37434 9.99798
1 24.5244 6.18898 10.798
1 25.3181 5.39528 10.798
1 25.3181 6.19283 10.0053
1 24.5094 5.38398 10.0349
1 26.1118 6.18898 10.798
1 26.9055 5.39528 10.798
1 26.8831 6.19753 10.0351
1 26.1106 5.38192 10.0296
1 27.6992 6.18898 10.798
1 28.4929 5.39528 10.798
1 28.5026 6.18364 9.97667
1 27.685 5.39999 9.99963
1 29.2866 6.18898 10.798
1 0.08031 5.39528 10.798
1 0.102113 6.17801 9.98355
1 29.2847 5.38173 9.9899
1 0.874011 6.18898 10.798
1 1.66771 5.39528 10.798