12976
Atoms. Timestep: 4000000
1 15 7.10543e-15 15.237
1 15.7937 29.2063 15.237
1 15.8173 29.9432 14.388
1 15.0837 29.1678 14.4129
1 16.5874 7.10543e-15 15.237
1 17.3811 29.2063 15.237
1 17.3798 29.9171 14.4131
1 16.5928 29.172 14.4404
1 18.1748 7.10543e-15 15.237
1 18.9685 29.2063 15.237
1 18.99 29.9259 14.4221
1 18.2029 29.1892 14.4427
1 19.7622 7.10543e-15 15.237
1 20.5559 29.2063 15.237
1 20.5772 29.9534 14.3939
1 19.7899 29.1769 14.4525
1 21.3496 7.10543e-15 15.237
1 22.1433 29.2063 15.237
1 22.1628 29.9275 14.3986
1 21.3475 29.1665 14.4473
1 22.937 7.10543e-15 15.237
1 23.7307 29.2063 15.237
1 23.7147 29.9472 14.426
1 22.9476 29.1531 14.4313
1 24.5244 7.10543e-15 15.237
1 25.3181 29.2063 15.237
1 25.3422 29.9379 14.401
1 24.5191 29.1839 14.4225
1 26.1118 7.10543e-15 15.237
1 26.9055 29.2063 15.237
1 26.9093 29.9239 14.3905
1 26.1231 29.1485 14.4526
1 27.6992 7.10543e-15 15.237
1 28.4929 29.2063 15.237
1 28.491 29.9185 14.4164
1 27.7077 29.1675 14.4329
1 29.2866 7.10543e-15 15.237
1 0.08031 29.2063 15.237
1 0.0623164 29.9481 14.4192
1 29.2877 29.1538 14.4326
1 0.874011 7.10543e-15 15.237
1 1.66771 29.2063 15.237
1 1.68792 29.9369 14.4021
1 0.894735 29.1799 14.4287
1 2.46141 7.10543e-15 15.237
1 3.25511 29.2063 15.237
1 3.26048 29.9661 14.396
1 2.45688 29.176 14.431
1 4.04881 7.10543e-15 15.237
1 4.84251 29.2063 15.237
1 4.87712 29.9249 14.4112
1 4.05734 29.1956 14.4507
1 5.63621 7.10543e-15 15.237
1 6.42991 29.2063 15.237
1 6.41267 29.9204 14.3892
1 5.64234 29.1612 14.4489
1 7.22361 7.10543e-15 15.237
1 8.01732 29.2063 15.237
1 8.00364 29.9272 14.4036
1 7.21531 29.1541 14.4219
1 8.81102 7.10543e-15 15.237
1 9.60472 29.2063 15.237
1 9.5851 29.9214 14.4202
1 8.80475 29.1804 14.4444
1 10.3984 7.10543e-15 15.237
1 11.1921 29.2063 15.237
1 11.1831 29.9167 14.4329
1 10.385 29.1808 14.4409
1 11.9858 7.10543e-15 15.237
1 12.7795 29.2063 15.237
1 12.7565 29.9465 14.4065
1 11.9871 29.1784 14.4261
1 13.5732 7.10543e-15 15.237
1 14.3669 29.2063 15.237
1 14.3017 29.9495 14.3833
1 13.5396 29.1833 14.4388
1 15 28.4126 15.237
1 15.7937 27.6189 15.237
1 15.8372 28.3957 14.4431
1 15.0713 27.5763 14.4237
1 16.5874 28.4126 15.237
1 17.3811 27.6189 15.237
1 17.3751 28.4051 14.4498
1 16.6034 27.5935 14.4523
1 18.1748 28.4126 15.237
1 18.9685 27.6189 15.237
1 19.004 28.382 14.4496
1 18.2014 27.607 14.4259
1 19.7622 28.4126 15.237
1 20.5559 27.6189 15.237
1 20.5704 28.3937 14.4405
1 19.7741 27.6095 14.4199
1 21.3496 28.4126 15.237
1 22.1433 27.6189 15.237
1 22.1424 28.3902 14.431
1 21.3509 27.6111 14.4656
1 22.937 28.4126 15.237
1 23.7307 27.6189 15.237
1 23.7355 28.3991 14.4321
1 22.953 27.589 14.4453
1 24.5244 28.4126 15.237
1 25.3181 27.6189 15.237
1 25.3261 28.4153 14.448
1 24.518 27.6181 14.4341
1 26.1118 28.4126 15.237
1 26.9055 27.6189 15.237
1 26.929 28.4075 14.4532
1 26.1061 27.6469 14.4719
1 27.6992 28.4126 15.237
1 28.4929 27.6189 15.237
1 28.4918 28.3773 14.4488
1 27.7182 27.5918 14.4631
1 29.2866 28.4126 15.237
1 0.08031 27.6189 15.237
1 0.107854 28.372 14.4314
1 29.2968 27.5914 14.4512
1 0.874011 28.4126 15.237
1 1.66771 27.6189 15.237
1 1.66376 28.4156 14.4342
1 0.87732 27.6048 14.4409
1 2.46141 28.4126 15.237
1 3.25511 27.6189 15.237
1 3.25165 28.4262 14.4419
1 2.46452 27.6299 14.4445
1 4.04881 28.4126 15.237
1 4.84251 27.6189 15.237
1 4.85578 28.392 14.4635
1 4.04876 27.5855 14.429
1 5.63621 28.4126 15.237
1 6.42991 27.6189 15.237
1 6.40386 28.3553 14.4271
1 5.64608 27.5932 14.4176
1 7.22361 28.4126 15.237
1 8.01732 27.6189 15.237
1 7.99972 28.3888 14.4381
1 7.23152 27.6057 14.4335
1 8.81102 28.4126 15.237
1 9.60472 27.6189 15.237
1 9.60424 28.3916 14.4379
1 8.78828 27.6202 14.4295
1 10.3984 28.4126 15.237
1 11.1921 27.6189 15.237
1 11.1761 28.4135 14.4493
1 10.3942 27.5676 14.4613
1 11.9858 28.4126 15.237
1 12.7795 27.6189 15.237
1 12.7776 28.3997 14.4319
1 11.9835 27.6095 14.4161
1 13.5732 28.4126 15.237
1 14.3669 27.6189 15.237
1 14.2895 28.3894 14.4146
1 13.5346 27.6129 14.4224
1 15 26.8252 15.237
1 15.7937 26.0315 15.237
1 15.8495 26.8328 14.4316
1 15.0673 26.0312 14.3979
1 16.5874 26.8252 15.237
1 17.3811 26.0315 15.237
1 17.42 26.819 14.4426
1 16.6104 26.0229 14.4285
1 18.1748 26.8252 15.237
1 18.9685 26.0315 15.237
1 18.9856 26.7912 14.3877
1 18.2292 26.0303 14.4267
1 19.7622 26.8252 15.237
1 20.5559 26.0315 15.237
1 20.5563 26.8061 14.4552
1 19.7721 26.0163 14.4516
1 21.3496 26.8252 15.237
1 22.1433 26.0315 15.237
1 22.1589 26.8149 14.4509
1 21.3489 26.0068 14.425
1 22.937 26.8252 15.237
1 23.7307 26.0315 15.237
1 23.7445 26.7877 14.4527
1 22.9536 26.0162 14.4468
1 24.5244 26.8252 15.237
1 25.3181 26.0315 15.237
1 25.3324 26.8237 14.436
1 24.5553 26.0116 14.477
1 26.1118 26.8252 15.237
1 26.9055 26.0315 15.237
1 26.8977 26.8456 14.4495
1 26.1144 26.0254 14.4082
1 27.6992 26.8252 15.237
1 28.4929 26.0315 15.237
1 28.4826 26.8054 14.4279
1 27.714 26.028 14.4301
1 29.2866 26.8252 15.237
1 0.08031 26.0315 15.237
1 0.0797668 26.8116 14.4501
1 29.2936 26.0509 14.4528
1 0.874011 26.8252 15.237
1 1.66771 26.0315 15.237
1 1.67815 26.8369 14.4256
1 0.883071 26.0376 14.4563
1 2.46141 26.8252 15.237
1 3.25511 26.0315 15.237
1 3.2447 26.7988 14.4143
1 2.46717 26.0183 14.4515
1 4.04881 26.8252 15.237
1 4.84251 26.0315 15.237
1 4.82855 26.8221 14.4416
1 4.04683 26.0317 14.4283
1 5.63621 26.8252 15.237
1 6.42991 26.0315 15.237
1 6.41351 26.8113 14.4352
1 5.63941 26.0338 14.44
1 7.22361 26.8252 15.237
1 8.01732 26.0315 15.237
1 8.0131 26.7816 14.4546
1 7.2235 26.0111 14.4267
1 8.81102 26.8252 15.237
1 9.60472 26.0315 15.237
1 9.60777 26.8251 14.4234
1 8.83359 25.9923 14.4411
1 10.3984 26.8252 15.237
1 11.1921 26.0315 15.237
1 11.2029 26.8266 14.4488
1 10.4182 26.0321 14.447
1 11.9858 26.8252 15.237
1 12.7795 26.0315 15.237
1 12.7601 26.8217 14.4471
1 11.9772 26.032 14.4469
1 13.5732 26.8252 15.237
1 14.3669 26.0315 15.237
1 14.2972 26.8057 14.4079
1 13.5568 26.0166 14.4409
1 15 25.2378 15.237
1 15.7937 24.4441 15.237
1 15.8339 25.257 14.4408
1 15.073 24.4672 14.4123
1 16.5874 25.2378 15.237
1 17.3811 24.4441 15.237
1 17.3979 25.2669 14.4241
1 16.6297 24.4629 14.4114
1 18.1748 25.2378 15.237
1 18.9685 24.4441 15.237
1 18.9653 25.2208 14.4235
1 18.1707 24.4342 14.4384
1 19.7622 25.2378 15.237
1 20.5559 24.4441 15.237
1 20.581 25.2033 14.4459
1 19.7501 24.4432 14.4446
1 21.3496 25.2378 15.237
1 22.1433 24.4441 15.237
1 22.1837 25.2118 14.4739
1 21.3641 24.431 14.4058
1 22.937 25.2378 15.237
1 23.7307 24.4441 15.237
1 23.7285 25.2425 14.4435
1 22.953 24.4426 14.4557
1 24.5244 25.2378 15.237
1 25.3181 24.4441 15.237
1 25.3348 25.2345 14.4432
1 24.5113 24.4289 14.444
1 26.1118 25.2378 15.237
1 26.9055 24.4441 15.237
1 26.9097 25.2336 14.4417
1 26.1115 24.449 14.444
1 27.6992 25.2378 15.237
1 28.4929 24.4441 15.237
1 28.4926 25.2351 14.4372
1 27.7135 24.4242 14.4639
1 29.2866 25.2378 15.237
1 0.08031 24.4441 15.237
1 0.0718763 25.2507 14.4514
1 29.3005 24.464 14.4719
1 0.874011 25.2378 15.237
1 1.66771 24.4441 15.237
1 1.67953 25.226 14.4239
1 0.882296 24.435 14.4353
1 2.46141 25.2378 15.237
1 3.25511 24.4441 15.237
1 3.27614 25.2143 14.433
1 2.47926 24.4388 14.4408
1 4.04881 25.2378 15.237
1 4.84251 24.4441 15.237
1 4.84111 25.2376 14.4504
1 4.03484 24.4447 14.4226
1 5.63621 25.2378 15.237
1 6.42991 24.4441 15.237
1 6.4286 25.2168 14.4242
1 5.6366 24.425 14.4413
1 7.22361 25.2378 15.237
1 8.01732 24.4441 15.237
1 8.01487 25.2321 14.4476
1 7.21204 24.441 14.4405
1 8.81102 25.2378 15.237
1 9.60472 24.4441 15.237
1 9.59903 25.2095 14.4262
1 8.81744 24.4109 14.4406
1 10.3984 25.2378 15.237
1 11.1921 24.4441 15.237
1 11.1868 25.2376 14.4545
1 10.4231 24.4462 14.4225
1 11.9858 25.2378 15.237
1 12.7795 24.4441 15.237
1 12.7472 25.2426 14.4555
1 11.9803 24.4478 14.4584
1 13.5732 25.2378 15.237
1 14.3669 24.4441 15.237
1 14.3122 25.2449 14.4302
1 13.5371 24.4527 14.425
1 15 23.6504 15.237
1 15.7937 22.8567 15.237
1 15.8515 23.6737 14.4125
1 15.0656 22.8935 14.4154
1 16.5874 23.6504 15.237
1 17.3811 22.8567 15.237
1 17.3869 23.6589 14.4304
1 16.6033 22.8403 14.4679
1 18.1748 23.6504 15.237
1 18.9685 22.8567 15.237
1 18.9483 23.6425 14.4398
1 18.193 22.8771 14.4285
1 19.7622 23.6504 15.237
1 20.5559 22.8567 15.237
1 20.5436 23.6432 14.4489
1 19.7526 22.8652 14.4531
1 21.3496 23.6504 15.237
1 22.1433 22.8567 15.237
1 22.1775 23.6291 14.4332
1 21.3346 22.8625 14.4337
1 22.937 23.6504 15.237
1 23.7307 22.8567 15.237
1 23.7365 23.6412 14.4342
1 22.9467 22.8489 14.4483
1 24.5244 23.6504 15.237
1 25.3181 22.8567 15.237
1 25.3367 23.6522 14.4323
1 24.5115 22.8926 14.4609
1 26.1118 23.6504 15.237
1 26.9055 22.8567 15.237
1 26.9293 23.6572 14.4302
1 26.1092 22.8755 14.4416
1 27.6992 23.6504 15.237
1 28.4929 22.8567 15.237
1 28.489 23.6392 14.4398
1 27.6927 22.8621 14.4273
1 29.2866 23.6504 15.237
1 0.08031 22.8567 15.237
1 0.107256 23.6466 14.4191
1 29.275 22.8386 14.4551
1 0.874011 23.6504 15.237
1 1.66771 22.8567 15.237
1 1.67797 23.6448 14.4481
1 0.866024 22.8514 14.4288
1 2.46141 23.6504 15.237
1 3.25511 22.8567 15.237
1 3.26475 23.6411 14.4474
1 2.45393 22.8682 14.4479
1 4.04881 23.6504 15.237
1 4.84251 22.8567 15.237
1 4.84482 23.6326 14.4521
1 4.0565 22.8348 14.4492
1 5.63621 23.6504 15.237
1 6.42991 22.8567 15.237
1 6.45422 23.6475 14.4531
1 5.65009 22.8406 14.4517
1 7.22361 23.6504 15.237
1 8.01732 22.8567 15.237
1 8.0013 23.6502 14.4372
1 7.19972 22.8444 14.4481
1 8.81102 23.6504 15.237
1 9.60472 22.8567 15.237
1 9.58649 23.6608 14.4585
1 8.79405 22.8355 14.4393
1 10.3984 23.6504 15.237
1 11.1921 22.8567 15.237
1 11.2048 23.6459 14.4287
1 10.396 22.8474 14.4386
1 11.9858 23.6504 15.237
1 12.7795 22.8567 15.237
1 12.7529 23.669 14.4028
1 11.9667 22.8552 14.4419
1 13.5732 23.6504 15.237
1 14.3669 22.8567 15.237
1 14.2937 23.635 14.4024
1 13.5187 22.8454 14.4374
1 15 22.063 15.237
1 15.7937 21.2693 15.237
1 15.8293 22.0702 14.4172
1 15.096 21.2314 14.4228
1 16.5874 22.063 15.237
1 17.3811 21.2693 15.237
1 17.3929 22.0729 14.4443
1 16.63 21.2795 14.4444
1 18.1748 22.063 15.237
1 18.9685 21.2693 15.237
1 18.973 22.0889 14.46
1 18.1572 21.2585 14.4667
1 19.7622 22.063 15.237
1 20.5559 21.2693 15.237
1 20.5725 22.0527 14.4766
1 19.7487 21.2734 14.4615
1 21.3496 22.063 15.237
1 22.1433 21.2693 15.237
1 22.1456 22.0694 14.4536
1 21.3652 21.2999 14.4755
1 22.937 22.063 15.237
1 23.7307 21.2693 15.237
1 23.737 22.0658 14.4497
1 22.9363 21.2741 14.4457
1 24.5244 22.063 15.237
1 25.3181 21.2693 15.237
1 25.3008 22.0901 14.4214
1 24.5292 21.279 14.4544
1 26.1118 22.063 15.237
1 26.9055 21.2693 15.237
1 26.9096 22.0909 14.4506
1 26.0975 21.3047 14.4604
1 27.6992 22.063 15.237
1 28.4929 21.2693 15.237
1 28.4937 22.0531 14.4424
1 27.7159 21.2606 14.414
1 29.2866 22.063 15.237
1 0.08031 21.2693 15.237
1 0.0660983 22.0545 14.4294
1 29.2842 21.2824 14.4289
1 0.874011 22.063 15.237
1 1.66771 21.2693 15.237
1 1.64424 22.0514 14.4274
1 0.844155 21.2724 14.4442
1 2.46141 22.063 15.237
1 3.25511 21.2693 15.237
1 3.23295 22.0459 14.4706
1 2.45888 21.2433 14.4575
1 4.04881 22.063 15.237
1 4.84251 21.2693 15.237
1 4.85163 22.0741 14.4446
1 4.05758 21.2742 14.4417
1 5.63621 22.063 15.237
1 6.42991 21.2693 15.237
1 6.41642 22.0828 14.4452
1 5.63681 21.268 14.4349
1 7.22361 22.063 15.237
1 8.01732 21.2693 15.237
1 8.04988 22.0628 14.4317
1 7.22523 21.2705 14.4189
1 8.81102 22.063 15.237
1 9.60472 21.2693 15.237
1 9.60862 22.0668 14.4475
1 8.80215 21.2864 14.4273
1 10.3984 22.063 15.237
1 11.1921 21.2693 15.237
1 11.1819 22.0453 14.4471
1 10.3819 21.2674 14.4293
1 11.9858 22.063 15.237
1 12.7795 21.2693 15.237
1 12.753 22.0469 14.444
1 11.9586 21.2454 14.4515
1 13.5732 22.063 15.237
1 14.3669 21.2693 15.237
1 14.3289 22.0603 14.4157
1 13.5454 21.2414 14.445
1 15 20.4756 15.237
1 15.7937 19.6819 15.237
1 15.8362 20.4575 14.4388
1 15.0724 19.684 14.3903
1 16.5874 20.4756 15.237
1 17.3811 19.6819 15.237
1 17.3694 20.4716 14.4628
1 16.6164 19.679 14.4326
1 18.1748 20.4756 15.237
1 18.9685 19.6819 15.237
1 18.9696 20.4756 14.4631
1 18.1814 19.7181 14.4623
1 19.7622 20.4756 15.237
1 20.5559 19.6819 15.237
1 20.5549 20.4809 14.4378
1 19.7608 19.6995 14.4455
1 21.3496 20.4756 15.237
1 22.1433 19.6819 15.237
1 22.1377 20.4782 14.466
1 21.3468 19.6752 14.4626
1 22.937 20.4756 15.237
1 23.7307 19.6819 15.237
1 23.7171 20.448 14.4538
1 22.9274 19.6487 14.4443
1 24.5244 20.4756 15.237
1 25.3181 19.6819 15.237
1 25.3068 20.4718 14.4327
1 24.5232 19.6813 14.4524
1 26.1118 20.4756 15.237
1 26.9055 19.6819 15.237
1 26.9008 20.4912 14.4432
1 26.1275 19.6387 14.4407
1 27.6992 20.4756 15.237
1 28.4929 19.6819 15.237
1 28.4676 20.481 14.4408
1 27.6833 19.7088 14.4396
1 29.2866 20.4756 15.237
1 0.08031 19.6819 15.237
1 0.0771097 20.4983 14.4365
1 29.2888 19.7051 14.4542
1 0.874011 20.4756 15.237
1 1.66771 19.6819 15.237
1 1.654 20.4702 14.4384
1 0.871571 19.6808 14.4279
1 2.46141 20.4756 15.237
1 3.25511 19.6819 15.237
1 3.2451 20.4609 14.4569
1 2.44236 19.6628 14.442
1 4.04881 20.4756 15.237
1 4.84251 19.6819 15.237
1 4.85165 20.491 14.435
1 4.07042 19.705 14.4458
1 5.63621 20.4756 15.237
1 6.42991 19.6819 15.237
1 6.43911 20.4821 14.4558
1 5.61005 19.6987 14.4457
1 7.22361 20.4756 15.237
1 8.01732 19.6819 15.237
1 8.04318 20.4983 14.4433
1 7.22311 19.6779 14.4161
1 8.81102 20.4756 15.237
1 9.60472 19.6819 15.237
1 9.60268 20.4894 14.4446
1 8.81979 19.6635 14.4345
1 10.3984 20.4756 15.237
1 11.1921 19.6819 15.237
1 11.1531 20.491 14.4242
1 10.3826 19.664 14.4357
1 11.9858 20.4756 15.237
1 12.7795 19.6819 15.237
1 12.7566 20.4617 14.4485
1 11.9784 19.6774 14.4303
1 13.5732 20.4756 15.237
1 14.3669 19.6819 15.237
1 14.2924 20.4781 14.4046
1 13.5674 19.6868 14.4329
1 15 18.8882 15.237
1 15.7937 18.0945 15.237
1 15.8482 18.9186 14.4337
1 15.0812 18.0944 14.4279
1 16.5874 18.8882 15.237
1 17.3811 18.0945 15.237
1 17.407 18.8888 14.4526
1 16.5887 18.0959 14.4347
1 18.1748 18.8882 15.237
1 18.9685 18.0945 15.237
1 18.9767 18.8974 14.4387
1 18.1728 18.0986 14.4391
1 19.7622 18.8882 15.237
1 20.5559 18.0945 15.237
1 20.5623 18.8798 14.442
1 19.7573 18.1024 14.4809
1 21.3496 18.8882 15.237
1 22.1433 18.0945 15.237
1 22.1205 18.9059 14.4325
1 21.3434 18.103 14.4346
1 22.937 18.8882 15.237
1 23.7307 18.0945 15.237
1 23.7265 18.8953 14.4484
1 22.9381 18.1029 14.4361
1 24.5244 18.8882 15.237
1 25.3181 18.0945 15.237
1 25.3111 18.8826 14.4341
1 24.5333 18.1117 14.4573
1 26.1118 18.8882 15.237
1 26.9055 18.0945 15.237
1 26.9141 18.9054 14.4308
1 26.125 18.1082 14.4103
1 27.6992 18.8882 15.237
1 28.4929 18.0945 15.237
1 28.4989 18.9057 14.4566
1 27.7312 18.0946 14.4061
1 29.2866 18.8882 15.237
1 0.08031 18.0945 15.237
1 0.0722077 18.8742 14.4442
1 29.2838 18.0524 14.4616
1 0.874011 18.8882 15.237
1 1.66771 18.0945 15.237
1 1.63643 18.8659 14.4452
1 0.886306 18.0614 14.433
1 2.46141 18.8882 15.237
1 3.25511 18.0945 15.237
1 3.27054 18.9096 14.4278
1 2.44706 18.0931 14.4383
1 4.04881 18.8882 15.237
1 4.84251 18.0945 15.237
1 4.84664 18.8912 14.442
1 4.04308 18.1044 14.4478
1 5.63621 18.8882 15.237
1 6.42991 18.0945 15.237
1 6.43319 18.8692 14.4331
1 5.62588 18.0771 14.4301
1 7.22361 18.8882 15.237
1 8.01732 18.0945 15.237
1 8.02901 18.8774 14.4431
1 7.24217 18.0771 14.4503
1 8.81102 18.8882 15.237
1 9.60472 18.0945 15.237
1 9.59355 18.8796 14.4272
1 8.80841 18.0942 14.4658
1 10.3984 18.8882 15.237
1 11.1921 18.0945 15.237
1 11.1506 18.8923 14.4359
1 10.3749 18.0937 14.453
1 11.9858 18.8882 15.237
1 12.7795 18.0945 15.237
1 12.7722 18.9101 14.4407
1 11.9562 18.11 14.4412
1 13.5732 18.8882 15.237
1 14.3669 18.0945 15.237
1 14.3334 18.9058 14.3921
1 13.5534 18.1193 14.4528
1 15 17.3008 15.237
1 15.7937 16.5071 15.237
1 15.8316 17.3061 14.432
1 15.0587 16.5149 14.4097
1 16.5874 17.3008 15.237
1 17.3811 16.5071 15.237
1 17.3912 17.2905 14.4502
1 16.5946 16.5096 14.4212
1 18.1748 17.3008 15.237
1 18.9685 16.5071 15.237
1 19.0019 17.3105 14.4485
1 18.1955 16.4826 14.4585
1 19.7622 17.3008 15.237
1 20.5559 16.5071 15.237
1 20.5565 17.3026 14.4454
1 19.7626 16.4836 14.4442
1 21.3496 17.3008 15.237
1 22.1433 16.5071 15.237
1 22.138 17.3016 14.4441
1 21.3546 16.5123 14.4572
1 22.937 17.3008 15.237
1 23.7307 16.5071 15.237
1 23.7152 17.3011 14.4558
1 22.9375 16.505 14.4383
1 24.5244 17.3008 15.237
1 25.3181 16.5071 15.237
1 25.3304 17.3295 14.4468
1 24.5102 16.5084 14.4531
1 26.1118 17.3008 15.237
1 26.9055 16.5071 15.237
1 26.9399 17.3196 14.4351
1 26.1289 16.4864 14.4388
1 27.6992 17.3008 15.237
1 28.4929 16.5071 15.237
1 28.4963 17.3099 14.4532
1 27.6954 16.5007 14.4483
1 29.2866 17.3008 15.237
1 0.08031 16.5071 15.237
1 0.0853127 17.2782 14.4276
1 29.2954 16.5159 14.4245
1 0.874011 17.3008 15.237
1 1.66771 16.5071 15.237
1 1.64245 17.3266 14.4518
1 0.894362 16.5196 14.449
1 2.46141 17.3008 15.237
1 3.25511 16.5071 15.237
1 3.2649 17.3172 14.4418
1 2.44456 16.5314 14.45
1 4.04881 17.3008 15.237
1 4.84251 16.5071 15.237
1 4.84896 17.2896 14.4725
1 4.02629 16.5141 14.4463
1 5.63621 17.3008 15.237
1 6.42991 16.5071 15.237
1 6.41303 17.3116 14.4499
1 5.67578 16.5097 14.4615
1 7.22361 17.3008 15.237
1 8.01732 16.5071 15.237
1 8.0294 17.3052 14.4598
1 7.21565 16.4861 14.4509
1 8.81102 17.3008 15.237
1 9.60472 16.5071 15.237
1 9.60682 17.311 14.4556
1 8.80294 16.5007 14.4342
1 10.3984 17.3008 15.237
1 11.1921 16.5071 15.237
1 11.1808 17.3092 14.4427
1 10.3694 16.4966 14.4585
1 11.9858 17.3008 15.237
1 12.7795 16.5071 15.237
1 12.773 17.3244 14.4436
1 11.9657 16.5284 14.4552
1 13.5732 17.3008 15.237
1 14.3669 16.5071 15.237
1 14.303 17.3325 14.429
1 13.547 16.5191 14.4388
1 15 15.7134 15.237
1 15.7937 14.9197 15.237
1 15.7916 15.736 14.4267
1 15.0749 14.9173 14.4438
1 16.5874 15.7134 15.237
1 17.3811 14.9197 15.237
1 17.3885 15.7129 14.4609
1 16.6116 14.934 14.4259
1 18.1748 15.7134 15.237
1 18.9685 14.9197 15.237
1 18.9832 15.7016 14.4241
1 18.1721 14.9172 14.4526
1 19.7622 15.7134 15.237
1 20.5559 14.9197 15.237
1 20.5814 15.723 14.4531
1 19.772 14.9088 14.4708
1 21.3496 15.7134 15.237
1 22.1433 14.9197 15.237
1 22.1368 15.6781 14.4416
1 21.3479 14.8973 14.4557
1 22.937 15.7134 15.237
1 23.7307 14.9197 15.237
1 23.7279 15.7212 14.4336
1 22.9252 14.9376 14.445
1 24.5244 15.7134 15.237
1 25.3181 14.9197 15.237
1 25.3074 15.729 14.4219
1 24.5353 14.9106 14.4483
1 26.1118 15.7134 15.237
1 26.9055 14.9197 15.237
1 26.9084 15.7156 14.4579
1 26.0948 14.9413 14.4395
1 27.6992 15.7134 15.237
1 28.4929 14.9197 15.237
1 28.5048 15.7205 14.4288
1 27.7146 14.916 14.4315
1 29.2866 15.7134 15.237
1 0.08031 14.9197 15.237
1 0.100284 15.7034 14.4549
1 29.3023 14.9156 14.4545
1 0.874011 15.7134 15.237
1 1.66771 14.9197 15.237
1 1.63682 15.6977 14.4298
1 0.866248 14.908 14.4695
1 2.46141 15.7134 15.237
1 3.25511 14.9197 15.237
1 3.21462 15.7026 14.4309
1 2.47346 14.9164 14.4335
1 4.04881 15.7134 15.237
1 4.84251 14.9197 15.237
1 4.83432 15.726 14.4395
1 4.04245 14.9259 14.4386
1 5.63621 15.7134 15.237
1 6.42991 14.9197 15.237
1 6.4335 15.7089 14.4467
1 5.65207 14.9272 14.4326
1 7.22361 15.7134 15.237
1 8.01732 14.9197 15.237
1 8.00607 15.6955 14.4404
1 7.22801 14.902 14.4477
1 8.81102 15.7134 15.237
1 9.60472 14.9197 15.237
1 9.60687 15.7157 14.4378
1 8.80887 14.9202 14.4473
1 10.3984 15.7134 15.237
1 11.1921 14.9197 15.237
1 11.1943 15.7144 14.4569
1 10.407 14.9064 14.4516
1 11.9858 15.7134 15.237
1 12.7795 14.9197 15.237
1 12.7756 15.7237 14.4263
1 11.9612 14.9087 14.4715
1 13.5732 15.7134 15.237
1 14.3669 14.9197 15.237
1 14.2924 15.7105 14.414
1 13.5426 14.926 14.4522
1 15 14.126 15.237
1 15.7937 13.3323 15.237
1 15.8336 14.1381 14.4375
1 15.0858 13.3547 14.3876
1 16.5874 14.126 15.237
1 17.3811 13.3323 15.237
1 17.382 14.1283 14.4455
1 16.64 13.3463 14.4111
1 18.1748 14.126 15.237
1 18.9685 13.3323 15.237
1 18.9502 14.1313 14.4725
1 18.2018 13.3195 14.4511
1 19.7622 14.126 15.237
1 20.5559 13.3323 15.237
1 20.5506 14.1289 14.4808
1 19.7638 13.3394 14.4577
1 21.3496 14.126 15.237
1 22.1433 13.3323 15.237
1 22.1561 14.1456 14.4547
1 21.346 13.3538 14.4523
1 22.937 14.126 15.237
1 23.7307 13.3323 15.237
1 23.7393 14.1186 14.4443
1 22.9186 13.3324 14.4213
1 24.5244 14.126 15.237
1 25.3181 13.3323 15.237
1 25.3309 14.1233 14.4596
1 24.5316 13.3324 14.4549
1 26.1118 14.126 15.237
1 26.9055 13.3323 15.237
1 26.8851 14.1199 14.4483
1 26.1135 13.3336 14.4374
1 27.6992 14.126 15.237
1 28.4929 13.3323 15.237
1 28.4985 14.1309 14.4393
1 27.7128 13.3309 14.4244
1 29.2866 14.126 15.237
1 0.08031 13.3323 15.237
1 0.0902182 14.1089 14.447
1 29.3014 13.3277 14.4484
1 0.874011 14.126 15.237
1 1.66771 13.3323 15.237
1 1.67488 14.0978 14.4416
1 0.872205 13.323 14.4369
1 2.46141 14.126 15.237
1 3.25511 13.3323 15.237
1 3.23525 14.1254 14.447
1 2.47447 13.3023 14.458
1 4.04881 14.126 15.237
1 4.84251 13.3323 15.237
1 4.84557 14.1304 14.4345
1 4.03247 13.3619 14.4414
1 5.63621 14.126 15.237
1 6.42991 13.3323 15.237
1 6.43008 14.1349 14.4692
1 5.62281 13.3541 14.4416
1 7.22361 14.126 15.237
1 8.01732 13.3323 15.237
1 8.00966 14.1142 14.4187
1 7.20486 13.3338 14.427
1 8.81102 14.126 15.237
1 9.60472 13.3323 15.237
1 9.60787 14.1263 14.4541
1 8.81333 13.3019 14.4451
1 10.3984 14.126 15.237
1 11.1921 13.3323 15.237
1 11.1736 14.1341 14.4566
1 10.3934 13.3475 14.4232
1 11.9858 14.126 15.237
1 12.7795 13.3323 15.237
1 12.7758 14.1107 14.451
1 11.9689 13.3539 14.4562
1 13.5732 14.126 15.237
1 14.3669 13.3323 15.237
1 14.3269 14.115 14.3942
1 13.5752 13.3263 14.4251
1 15 12.5386 15.237
1 15.7937 11.7449 15.237
1 15.8377 12.559 14.4483
1 15.0621 11.7694 14.4082
1 16.5874 12.5386 15.237
1 17.3811 11.7449 15.237
1 17.385 12.5304 14.438
1 16.607 11.7259 14.4405
1 18.1748 12.5386 15.237
1 18.9685 11.7449 15.237
1 18.9696 12.5231 14.4476
1 18.204 11.7325 14.4409
1 19.7622 12.5386 15.237
1 20.5559 11.7449 15.237
1 20.5524 12.5556 14.4434
1 19.7833 11.7424 14.4263
1 21.3496 12.5386 15.237
1 22.1433 11.7449 15.237
1 22.1526 12.543 14.4231
1 21.3642 11.7523 14.4491
1 22.937 12.5386 15.237
1 23.7307 11.7449 15.237
1 23.7257 12.5262 14.4373
1 22.9202 11.7393 14.4462
1 24.5244 12.5386 15.237
1 25.3181 11.7449 15.237
1 25.317 12.5361 14.4607
1 24.5059 11.7455 14.443
1 26.1118 12.5386 15.237
1 26.9055 11.7449 15.237
1 26.9412 12.5258 14.4361
1 26.1168 11.7645 14.4503
1 27.6992 12.5386 15.237
1 28.4929 11.7449 15.237
1 28.4801 12.5313 14.425
1 27.69 11.7286 14.4368
1 29.2866 12.5386 15.237
1 0.08031 11.7449 15.237
1 0.06383 12.512 14.459
1 29.2824 11.7577 14.4109
1 0.874011 12.5386 15.237
1 1.66771 11.7449 15.237
1 1.67339 12.5367 14.4351
1 0.87718 11.7104 14.4632
1 2.46141 12.5386 15.237
1 3.25511 11.7449 15.237
1 3.24661 12.5267 14.4506
1 2.46054 11.7341 14.4536
1 4.04881 12.5386 15.237
1 4.84251 11.7449 15.237
1 4.82062 12.5658 14.4552
1 4.04184 11.7627 14.4614
1 5.63621 12.5386 15.237
1 6.42991 11.7449 15.237
1 6.43516 12.5596 14.4387
1 5.64498 11.7669 14.4373
1 7.22361 12.5386 15.237
1 8.01732 11.7449 15.237
1 8.00136 12.5508 14.4435
1 7.22428 11.7489 14.4632
1 8.81102 12.5386 15.237
1 9.60472 11.7449 15.237
1 9.61221 12.5158 14.4386
1 8.81698 11.7382 14.4357
1 10.3984 12.5386 15.237
1 11.1921 11.7449 15.237
1 11.1921 12.544 14.461
1 10.3985 11.7495 14.4461
1 11.9858 12.5386 15.237
1 12.7795 11.7449 15.237
1 12.7712 12.5641 14.4383
1 11.9871 11.7533 14.4591
1 13.5732 12.5386 15.237
1 14.3669 11.7449 15.237
1 14.304 12.5413 14.4305
1 13.5206 11.7443 14.46
1 15 10.9512 15.237
1 15.7937 10.1575 15.237
1 15.8005 10.9414 14.4167
1 15.105 10.1548 14.4244
1 16.5874 10.9512 15.237
1 17.3811 10.1575 15.237
1 17.3946 10.9574 14.4525
1 16.608 10.147 14.4299
1 18.1748 10.9512 15.237
1 18.9685 10.1575 15.237
1 18.9396 10.9501 14.4677
1 18.1871 10.1486 14.4384
1 19.7622 10.9512 15.237
1 20.5559 10.1575 15.237
1 20.561 10.9209 14.4454
1 19.7433 10.1652 14.4661
1 21.3496 10.9512 15.237
1 22.1433 10.1575 15.237
1 22.1575 10.943 14.4408
1 21.3661 10.1551 14.4398
1 22.937 10.9512 15.237
1 23.7307 10.1575 15.237
1 23.72 10.9469 14.4128
1 22.9141 10.1657 14.4341
1 24.5244 10.9512 15.237
1 25.3181 10.1575 15.237
1 25.3023 10.9609 14.452
1 24.5188 10.1499 14.4347
1 26.1118 10.9512 15.237
1 26.9055 10.1575 15.237
1 26.9099 10.9411 14.444
1 26.1056 10.184 14.444
1 27.6992 10.9512 15.237
1 28.4929 10.1575 15.237
1 28.5021 10.9663 14.4336
1 27.6963 10.145 14.4536
1 29.2866 10.9512 15.237
1 0.08031 10.1575 15.237
1 0.0546228 10.9433 14.4268
1 29.267 10.1593 14.4517
1 0.874011 10.9512 15.237
1 1.66771 10.1575 15.237
1 1.66324 10.9413 14.4574
1 0.883734 10.155 14.4331
1 2.46141 10.9512 15.237
1 3.25511 10.1575 15.237
1 3.23501 10.9327 14.4515
1 2.42564 10.147 14.4139
1 4.04881 10.9512 15.237
1 4.84251 10.1575 15.237
1 4.83482 10.9554 14.4507
1 4.05232 10.1593 14.4499
1 5.63621 10.9512 15.237
1 6.42991 10.1575 15.237
1 6.43329 10.954 14.4773
1 5.64247 10.1377 14.4386
1 7.22361 10.9512 15.237
1 8.01732 10.1575 15.237
1 8.03854 10.9361 14.4473
1 7.23565 10.162 14.4535
1 8.81102 10.9512 15.237
1 9.60472 10.1575 15.237
1 9.60724 10.9376 14.4244
1 8.80534 10.1353 14.4894
1 10.3984 10.9512 15.237
1 11.1921 10.1575 15.237
1 11.2203 10.9709 14.4857
1 10.4217 10.1546 14.4368
1 11.9858 10.9512 15.237
1 12.7795 10.1575 15.237
1 12.7541 10.9231 14.4565
1 11.9798 10.1572 14.4367
1 13.5732 10.9512 15.237
1 14.3669 10.1575 15.237
1 14.2978 10.9594 14.3923
1 13.5585 10.1486 14.4308
1 15 9.36379 15.237
1 15.7937 8.57009 15.237
1 15.8452 9.38301 14.4158
1 15.0909 8.57027 14.3915
1 16.5874 9.36379 15.237
1 17.3811 8.57009 15.237
1 17.3793 9.37285 14.4487
1 16.6001 8.60456 14.4539
1 18.1748 9.36379 15.237
1 18.9685 8.57009 15.237
1 18.9819 9.32345 14.4468
1 18.1933 8.5536 14.4467
1 19.7622 9.36379 15.237
1 20.5559 8.57009 15.237
1 20.5321 9.34369 14.4534
1 19.7824 8.57077 14.4216
1 21.3496 9.36379 15.237
1 22.1433 8.57009 15.237
1 22.1603 9.35583 14.4496
1 21.3474 8.57257 14.4363
1 22.937 9.36379 15.237
1 23.7307 8.57009 15.237
1 23.738 9.35935 14.4258
1 22.9616 8.58248 14.4353
1 24.5244 9.36379 15.237
1 25.3181 8.57009 15.237
1 25.307 9.35228 14.4674
1 24.5209 8.57329 14.4517
1 26.1118 9.36379 15.237
1 26.9055 8.57009 15.237
1 26.8833 9.38868 14.4428
1 26.1065 8.55584 14.4684
1 27.6992 9.36379 15.237
1 28.4929 8.57009 15.237
1 28.4663 9.37527 14.4663
1 27.6895 8.55129 14.4528
1 29.2866 9.36379 15.237
1 0.08031 8.57009 15.237
1 0.0674974 9.35 14.4408
1 29.2888 8.57105 14.452
1 0.874011 9.36379 15.237
1 1.66771 8.57009 15.237
1 1.65653 9.36798 14.4444
1 0.858264 8.56844 14.458
1 2.46141 9.36379 15.237
1 3.25511 8.57009 15.237
1 3.25028 9.34304 14.4265
1 2.46319 8.57844 14.4668
1 4.04881 9.36379 15.237
1 4.84251 8.57009 15.237
1 4.84168 9.39642 14.4573
1 4.07991 8.59758 14.4455
1 5.63621 9.36379 15.237
1 6.42991 8.57009 15.237
1 6.4208 9.34473 14.4664
1 5.62065 8.55573 14.4389
1 7.22361 9.36379 15.237
1 8.01732 8.57009 15.237
1 7.9778 9.34657 14.4438
1 7.22177 8.56601 14.4295
1 8.81102 9.36379 15.237
1 9.60472 8.57009 15.237
1 9.60187 9.37949 14.4232
1 8.79808 8.59008 14.4433
1 10.3984 9.36379 15.237
1 11.1921 8.57009 15.237
1 11.2071 9.39234 14.4296
1 10.4099 8.58467 14.4496
1 11.9858 9.36379 15.237
1 12.7795 8.57009 15.237
1 12.7831 9.34113 14.433
1 11.9831 8.5478 14.4441
1 13.5732 9.36379 15.237
1 14.3669 8.57009 15.237
1 14.3259 9.38352 14.4012
1 13.5561 8.57324 14.4304
1 15 7.77639 15.237
1 15.7937 6.98268 15.237
1 15.8272 7.797 14.433
1 15.0787 6.9934 14.4041
1 16.5874 7.77639 15.237
1 17.3811 6.98268 15.237
1 17.3834 7.78641 14.4557
1 16.6048 6.9859 14.4154
1 18.1748 7.77639 15.237
1 18.9685 6.98268 15.237
1 18.9599 7.77994 14.4543
1 18.1633 6.97957 14.4563
1 19.7622 7.77639 15.237
1 20.5559 6.98268 15.237
1 20.5583 7.77251 14.4294
1 19.7674 6.99403 14.4242
1 21.3496 7.77639 15.237
1 22.1433 6.98268 15.237
1 22.155 7.76436 14.4546
1 21.3468 6.98672 14.4697
1 22.937 7.77639 15.237
1 23.7307 6.98268 15.237
1 23.738 7.77713 14.4414
1 22.9564 6.99602 14.4497
1 24.5244 7.77639 15.237
1 25.3181 6.98268 15.237
1 25.331 7.76355 14.4372
1 24.5276 7.01273 14.4236
1 26.1118 7.77639 15.237
1 26.9055 6.98268 15.237
1 26.9292 7.76129 14.4414
1 26.1222 6.97532 14.4267
1 27.6992 7.77639 15.237
1 28.4929 6.98268 15.237
1 28.5106 7.75811 14.4304
1 27.7216 6.97192 14.4571
1 29.2866 7.77639 15.237
1 0.08031 6.98268 15.237
1 0.10793 7.75928 14.4236
1 29.2884 6.98497 14.4482
1 0.874011 7.77639 15.237
1 1.66771 6.98268 15.237
1 1.67809 7.79636 14.4731
1 0.871574 6.9922 14.4641
1 2.46141 7.77639 15.237
1 3.25511 6.98268 15.237
1 3.2704 7.787 14.4451
1 2.45512 6.96647 14.4521
1 4.04881 7.77639 15.237
1 4.84251 6.98268 15.237
1 4.82918 7.77834 14.4538
1 4.07214 6.96914 14.4267
1 5.63621 7.77639 15.237
1 6.42991 6.98268 15.237
1 6.4255 7.78357 14.4265
1 5.64147 6.96188 14.4493
1 7.22361 7.77639 15.237
1 8.01732 6.98268 15.237
1 8.00789 7.77669 14.4353
1 7.2236 6.97306 14.4216
1 8.81102 7.77639 15.237
1 9.60472 6.98268 15.237
1 9.60557 7.8132 14.4445
1 8.81673 6.99118 14.4434
1 10.3984 7.77639 15.237
1 11.1921 6.98268 15.237
1 11.1931 7.76819 14.4507
1 10.4062 6.98439 14.4327
1 11.9858 7.77639 15.237
1 12.7795 6.98268 15.237
1 12.7686 7.79874 14.4238
1 11.9639 6.98459 14.4262
1 13.5732 7.77639 15.237
1 14.3669 6.98268 15.237
1 14.3112 7.79343 14.4172
1 13.5346 7.01757 14.42
1 15 6.18898 15.237
1 15.7937 5.39528 15.237
1 15.8277 6.17378 14.4217
1 15.0827 5.42716 14.403
1 16.5874 6.18898 15.237
1 17.3811 5.39528 15.237
1 17.3879 6.20263 14.4432
1 16.6004 5.40613 14.4513
1 18.1748 6.18898 15.237
1 18.9685 5.39528 15.237
1 18.9705 6.18444 14.4296
1 18.1553 5.39613 14.4344
1 19.7622 6.18898 15.237
1 20.5559 5.39528 15.237
1 20.5838 6.1963 14.4632
1 19.776 5.40719 14.4694
1 21.3496 6.18898 15.237
1 22.1433 5.39528 15.237
1 22.1399 6.20408 14.4688
1 21.3559 5.40163 14.4459
1 22.937 6.18898 15.237
1 23.7307 5.39528 15.237
1 23.74 6.19502 14.445
1 22.9644 5.43959 14.4413
1 24.5244 6.18898 15.237
1 25.3181 5.39528 15.237
1 25.3304 6.20286 14.431
1 24.535 5.39663 14.446
1 26.1118 6.18898 15.237
1 26.9055 5.39528 15.237
1 26.915 6.18794 14.444
1 26.1081 5.396 14.44
1 27.6992 6.18898 15.237
1 28.4929 5.39528 15.237
1 28.4963 6.18741 14.4429
1 27.7041 5.39493 14.4459
1 29.2866 6.18898 15.237
1 0.08031 5.39528 15.237
1 0.089742 6.19199 14.4446
1 29.2953 5.3928 14.4431
1 0.874011 6.18898 15.237
1 1.66771 5.39528 15.237
1 1.69109 6.19665 14.4282
1 0.892835 5.3769 14.4395