9376
Atoms. Timestep: 4000000
1 15 3.55271e-15 10.6122
1 15.7937 29.2063 10.6122
1 15.8316 29.9366 9.77765
1 15.06 29.178 9.76927
1 16.5874 3.55271e-15 10.6122
1 17.3811 29.2063 10.6122
1 17.3897 29.9187 9.78297
1 16.5983 29.1539 9.77531
1 18.1748 3.55271e-15 10.6122
1 18.9685 29.2063 10.6122
1 18.9593 29.9347 9.79157
1 18.1841 29.1651 9.8166
1 19.7622 3.55271e-15 10.6122
1 20.5559 29.2063 10.6122
1 20.55 29.9234 9.7767
1 19.7533 29.1783 9.80266
1 21.3496 3.55271e-15 10.6122
1 22.1433 29.2063 10.6122
1 22.1383 29.937 9.78636
1 21.3624 29.1798 9.81403
1 22.937 3.55271e-15 10.6122
1 23.7307 29.2063 10.6122
1 23.7193 29.9277 9.79986
1 22.947 29.1845 9.81503
1 24.5244 3.55271e-15 10.6122
1 25.3181 29.2063 10.6122
1 25.3158 29.9213 9.77948
1 24.549 29.174 9.81624
1 26.1118 3.55271e-15 10.6122
1 26.9055 29.2063 10.6122
1 26.9062 29.9336 9.77897
1 26.0796 29.1532 9.79795
1 27.6992 3.55271e-15 10.6122
1 28.4929 29.2063 10.6122
1 28.4871 29.9142 9.79086
1 27.7097 29.1741 9.81554
1 29.2866 3.55271e-15 10.6122
1 0.08031 29.2063 10.6122
1 0.0721449 29.9431 9.7814
1 29.2916 29.1926 9.80648
1 0.874011 3.55271e-15 10.6122
1 1.66771 29.2063 10.6122
1 1.65323 29.9369 9.78478
1 0.892208 29.1869 9.80584
1 2.46141 3.55271e-15 10.6122
1 3.25511 29.2063 10.6122
1 3.24526 29.9113 9.77111
1 2.45083 29.171 9.83975
1 4.04881 3.55271e-15 10.6122
1 4.84251 29.2063 10.6122
1 4.82532 29.9124 9.76156
1 4.01983 29.2028 9.80167
1 5.63621 3.55271e-15 10.6122
1 6.42991 29.2063 10.6122
1 6.42135 29.931 9.80556
1 5.65352 29.1888 9.81738
1 7.22361 3.55271e-15 10.6122
1 8.01732 29.2063 10.6122
1 8.02138 29.9301 9.77925
1 7.22139 29.1688 9.79624
1 8.81102 3.55271e-15 10.6122
1 9.60472 29.2063 10.6122
1 9.57569 29.9406 9.77754
1 8.79037 29.1615 9.82006
1 10.3984 3.55271e-15 10.6122
1 11.1921 29.2063 10.6122
1 11.1576 29.9291 9.75872
1 10.3761 29.1955 9.81669
1 11.9858 3.55271e-15 10.6122
1 12.7795 29.2063 10.6122
1 12.7376 29.9438 9.78694
1 11.9621 29.1832 9.80328
1 13.5732 3.55271e-15 10.6122
1 14.3669 29.2063 10.6122
1 14.277 29.9513 9.73619
1 13.5502 29.1971 9.78874
1 15 28.4126 10.6122
1 15.7937 27.6189 10.6122
1 15.8274 28.4086 9.80255
1 15.0606 27.6224 9.78534
1 16.5874 28.4126 10.6122
1 17.3811 27.6189 10.6122
1 17.3831 28.3998 9.82174
1 16.613 27.611 9.8226
1 18.1748 28.4126 10.6122
1 18.9685 27.6189 10.6122
1 18.9751 28.3814 9.81054
1 18.1727 27.5944 9.82666
1 19.7622 28.4126 10.6122
1 20.5559 27.6189 10.6122
1 20.5614 28.3962 9.79739
1 19.7541 27.5754 9.83166
1 21.3496 28.4126 10.6122
1 22.1433 27.6189 10.6122
1 22.1469 28.3894 9.82142
1 21.3395 27.5903 9.8329
1 22.937 28.4126 10.6122
1 23.7307 27.6189 10.6122
1 23.7508 28.3686 9.80739
1 22.915 27.6056 9.82927
1 24.5244 28.4126 10.6122
1 25.3181 27.6189 10.6122
1 25.3147 28.407 9.80915
1 24.5397 27.6073 9.83171
1 26.1118 28.4126 10.6122
1 26.9055 27.6189 10.6122
1 26.8873 28.3941 9.84346
1 26.109 27.6457 9.81779
1 27.6992 28.4126 10.6122
1 28.4929 27.6189 10.6122
1 28.5157 28.418 9.7986
1 27.678 27.622 9.80157
1 29.2866 28.4126 10.6122
1 0.08031 27.6189 10.6122
1 0.100135 28.3831 9.81741
1 29.2493 27.5902 9.80913
1 0.874011 28.4126 10.6122
1 1.66771 27.6189 10.6122
1 1.66488 28.3881 9.84368
1 0.891187 27.6017 9.80871
1 2.46141 28.4126 10.6122
1 3.25511 27.6189 10.6122
1 3.24812 28.4052 9.82304
1 2.43504 27.6318 9.82225
1 4.04881 28.4126 10.6122
1 4.84251 27.6189 10.6122
1 4.83946 28.3861 9.79847
1 4.06125 27.6227 9.81732
1 5.63621 28.4126 10.6122
1 6.42991 27.6189 10.6122
1 6.42868 28.3958 9.83684
1 5.62395 27.5896 9.83654
1 7.22361 28.4126 10.6122
1 8.01732 27.6189 10.6122
1 8.03146 28.391 9.82039
1 7.21663 27.6217 9.83964
1 8.81102 28.4126 10.6122
1 9.60472 27.6189 10.6122
1 9.598 28.4019 9.81922
1 8.81889 27.6272 9.82565
1 10.3984 28.4126 10.6122
1 11.1921 27.6189 10.6122
1 11.1699 28.3921 9.81746
1 10.3866 27.622 9.79801
1 11.9858 28.4126 10.6122
1 12.7795 27.6189 10.6122
1 12.7758 28.4145 9.7989
1 12.0007 27.5852 9.85076
1 13.5732 28.4126 10.6122
1 14.3669 27.6189 10.6122
1 14.306 28.4005 9.77738
1 13.5274 27.6099 9.79671
1 15 26.8252 10.6122
1 15.7937 26.0315 10.6122
1 15.8305 26.835 9.81133
1 15.064 26.0362 9.77734
1 16.5874 26.8252 10.6122
1 17.3811 26.0315 10.6122
1 17.4189 26.8218 9.8283
1 16.6278 26.0264 9.81871
1 18.1748 26.8252 10.6122
1 18.9685 26.0315 10.6122
1 18.9845 26.7929 9.8327
1 18.1864 25.9962 9.83252
1 19.7622 26.8252 10.6122
1 20.5559 26.0315 10.6122
1 20.5511 26.8185 9.83161
1 19.7556 26.0262 9.83879
1 21.3496 26.8252 10.6122
1 22.1433 26.0315 10.6122
1 22.1369 26.8077 9.81561
1 21.3577 26.0259 9.82529
1 22.937 26.8252 10.6122
1 23.7307 26.0315 10.6122
1 23.7289 26.8024 9.84981
1 22.9572 26.0142 9.82746
1 24.5244 26.8252 10.6122
1 25.3181 26.0315 10.6122
1 25.3053 26.8115 9.81987
1 24.5315 26.0281 9.82919
1 26.1118 26.8252 10.6122
1 26.9055 26.0315 10.6122
1 26.8976 26.808 9.82555
1 26.114 26.0413 9.85556
1 27.6992 26.8252 10.6122
1 28.4929 26.0315 10.6122
1 28.4899 26.7997 9.83827
1 27.7088 26.0337 9.81299
1 29.2866 26.8252 10.6122
1 0.08031 26.0315 10.6122
1 0.0802181 26.8093 9.80739
1 29.2596 26.0364 9.83209
1 0.874011 26.8252 10.6122
1 1.66771 26.0315 10.6122
1 1.64741 26.8554 9.80324
1 0.858964 26.0254 9.82656
1 2.46141 26.8252 10.6122
1 3.25511 26.0315 10.6122
1 3.22564 26.8465 9.85371
1 2.43184 26.0542 9.83093
1 4.04881 26.8252 10.6122
1 4.84251 26.0315 10.6122
1 4.83852 26.8175 9.8294
1 4.04722 26.0261 9.82351
1 5.63621 26.8252 10.6122
1 6.42991 26.0315 10.6122
1 6.45822 26.8275 9.80877
1 5.63465 26.0125 9.78609
1 7.22361 26.8252 10.6122
1 8.01732 26.0315 10.6122
1 8.03123 26.8558 9.82789
1 7.20289 26.041 9.82508
1 8.81102 26.8252 10.6122
1 9.60472 26.0315 10.6122
1 9.62199 26.8297 9.80611
1 8.79709 26.0471 9.81884
1 10.3984 26.8252 10.6122
1 11.1921 26.0315 10.6122
1 11.1748 26.8127 9.81418
1 10.3921 26.0178 9.82331
1 11.9858 26.8252 10.6122
1 12.7795 26.0315 10.6122
1 12.7619 26.8187 9.82309
1 11.9944 26.0315 9.81085
1 13.5732 26.8252 10.6122
1 14.3669 26.0315 10.6122
1 14.2717 26.8343 9.78915
1 13.5504 26.0106 9.82759
1 15 25.2378 10.6122
1 15.7937 24.4441 10.6122
1 15.8195 25.2352 9.82432
1 15.0221 24.4438 9.77912
1 16.5874 25.2378 10.6122
1 17.3811 24.4441 10.6122
1 17.3765 25.2467 9.83897
1 16.5904 24.4458 9.81707
1 18.1748 25.2378 10.6122
1 18.9685 24.4441 10.6122
1 18.984 25.2435 9.8128
1 18.1833 24.458 9.81751
1 19.7622 25.2378 10.6122
1 20.5559 24.4441 10.6122
1 20.5363 25.2321 9.79972
1 19.7509 24.4235 9.81363
1 21.3496 25.2378 10.6122
1 22.1433 24.4441 10.6122
1 22.1229 25.2284 9.80883
1 21.3523 24.4474 9.82733
1 22.937 25.2378 10.6122
1 23.7307 24.4441 10.6122
1 23.7392 25.2124 9.78635
1 22.9464 24.4212 9.82147
1 24.5244 25.2378 10.6122
1 25.3181 24.4441 10.6122
1 25.3256 25.2565 9.80195
1 24.5354 24.442 9.80458
1 26.1118 25.2378 10.6122
1 26.9055 24.4441 10.6122
1 26.8889 25.2636 9.81833
1 26.1146 24.4728 9.78079
1 27.6992 25.2378 10.6122
1 28.4929 24.4441 10.6122
1 28.4878 25.2397 9.82425
1 27.6982 24.4375 9.82
1 29.2866 25.2378 10.6122
1 0.08031 24.4441 10.6122
1 0.0536687 25.2303 9.81164
1 29.2681 24.4296 9.80293
1 0.874011 25.2378 10.6122
1 1.66771 24.4441 10.6122
1 1.64722 25.2461 9.82224
1 0.865493 24.4165 9.81648
1 2.46141 25.2378 10.6122
1 3.25511 24.4441 10.6122
1 3.26378 25.2341 9.81483
1 2.45919 24.4331 9.81557
1 4.04881 25.2378 10.6122
1 4.84251 24.4441 10.6122
1 4.84427 25.2614 9.80497
1 4.06269 24.4398 9.8279
1 5.63621 25.2378 10.6122
1 6.42991 24.4441 10.6122
1 6.42832 25.2412 9.82307
1 5.62853 24.4564 9.81316
1 7.22361 25.2378 10.6122
1 8.01732 24.4441 10.6122
1 8.02636 25.2474 9.83894
1 7.23077 24.4329 9.85846
1 8.81102 25.2378 10.6122
1 9.60472 24.4441 10.6122
1 9.60634 25.236 9.81085
1 8.82307 24.4336 9.83398
1 10.3984 25.2378 10.6122
1 11.1921 24.4441 10.6122
1 11.2111 25.2291 9.83495
1 10.4015 24.4462 9.83337
1 11.9858 25.2378 10.6122
1 12.7795 24.4441 10.6122
1 12.7647 25.2154 9.82578
1 11.9746 24.43 9.82575
1 13.5732 25.2378 10.6122
1 14.3669 24.4441 10.6122
1 14.3125 25.2483 9.77921
1 13.5866 24.4089 9.81192
1 15 23.6504 10.6122
1 15.7937 22.8567 10.6122
1 15.7988 23.6691 9.82884
1 15.056 22.8386 9.77036
1 16.5874 23.6504 10.6122
1 17.3811 22.8567 10.6122
1 17.3888 23.6564 9.81579
1 16.5993 22.8724 9.82411
1 18.1748 23.6504 10.6122
1 18.9685 22.8567 10.6122
1 18.9625 23.6392 9.8019
1 18.1604 22.8579 9.8046
1 19.7622 23.6504 10.6122
1 20.5559 22.8567 10.6122
1 20.5607 23.6426 9.79931
1 19.772 22.841 9.82955
1 21.3496 23.6504 10.6122
1 22.1433 22.8567 10.6122
1 22.1523 23.6409 9.82503
1 21.3357 22.8562 9.82421
1 22.937 23.6504 10.6122
1 23.7307 22.8567 10.6122
1 23.7627 23.6565 9.80727
1 22.9325 22.8483 9.81163
1 24.5244 23.6504 10.6122
1 25.3181 22.8567 10.6122
1 25.3307 23.6551 9.81789
1 24.5472 22.8549 9.83067
1 26.1118 23.6504 10.6122
1 26.9055 22.8567 10.6122
1 26.9044 23.6474 9.8045
1 26.1054 22.8485 9.82312
1 27.6992 23.6504 10.6122
1 28.4929 22.8567 10.6122
1 28.4946 23.6585 9.796
1 27.711 22.8569 9.83888
1 29.2866 23.6504 10.6122
1 0.08031 22.8567 10.6122
1 0.0655371 23.6385 9.83361
1 29.2804 22.8469 9.84891
1 0.874011 23.6504 10.6122
1 1.66771 22.8567 10.6122
1 1.67064 23.6518 9.81917
1 0.882628 22.8701 9.82956
1 2.46141 23.6504 10.6122
1 3.25511 22.8567 10.6122
1 3.25742 23.6298 9.84067
1 2.44859 22.8683 9.83052
1 4.04881 23.6504 10.6122
1 4.84251 22.8567 10.6122
1 4.83993 23.6666 9.80034
1 4.06179 22.8575 9.78527
1 5.63621 23.6504 10.6122
1 6.42991 22.8567 10.6122
1 6.40348 23.6719 9.83922
1 5.64035 22.8479 9.80973
1 7.22361 23.6504 10.6122
1 8.01732 22.8567 10.6122
1 8.00094 23.6523 9.83609
1 7.25664 22.858 9.82918
1 8.81102 23.6504 10.6122
1 9.60472 22.8567 10.6122
1 9.6153 23.6381 9.82464
1 8.81799 22.8774 9.81764
1 10.3984 23.6504 10.6122
1 11.1921 22.8567 10.6122
1 11.1982 23.6334 9.82391
1 10.3951 22.8466 9.80657
1 11.9858 23.6504 10.6122
1 12.7795 22.8567 10.6122
1 12.7713 23.6672 9.817
1 11.9889 22.8727 9.83434
1 13.5732 23.6504 10.6122
1 14.3669 22.8567 10.6122
1 14.3148 23.6349 9.76966
1 13.5575 22.8627 9.79372
1 15 22.063 10.6122
1 15.7937 21.2693 10.6122
1 15.8342 22.0432 9.80096
1 15.0541 21.2844 9.77941
1 16.5874 22.063 10.6122
1 17.3811 21.2693 10.6122
1 17.3796 22.0724 9.84254
1 16.623 21.2739 9.81243
1 18.1748 22.063 10.6122
1 18.9685 21.2693 10.6122
1 18.9769 22.0669 9.83299
1 18.2057 21.2647 9.82556
1 19.7622 22.063 10.6122
1 20.5559 21.2693 10.6122
1 20.5915 22.0528 9.81716
1 19.7466 21.2649 9.82405
1 21.3496 22.063 10.6122
1 22.1433 21.2693 10.6122
1 22.1342 22.0643 9.78598
1 21.3569 21.2322 9.80948
1 22.937 22.063 10.6122
1 23.7307 21.2693 10.6122
1 23.7384 22.0745 9.83356
1 22.9629 21.2913 9.82523
1 24.5244 22.063 10.6122
1 25.3181 21.2693 10.6122
1 25.3187 22.0565 9.82963
1 24.5339 21.2997 9.82346
1 26.1118 22.063 10.6122
1 26.9055 21.2693 10.6122
1 26.922 22.0412 9.80231
1 26.1027 21.2428 9.80986
1 27.6992 22.063 10.6122
1 28.4929 21.2693 10.6122
1 28.4946 22.0531 9.80548
1 27.693 21.2503 9.82473
1 29.2866 22.063 10.6122
1 0.08031 21.2693 10.6122
1 0.0844155 22.0527 9.80231
1 29.2886 21.2564 9.83499
1 0.874011 22.063 10.6122
1 1.66771 21.2693 10.6122
1 1.66086 22.0491 9.81659
1 0.868193 21.2857 9.81467
1 2.46141 22.063 10.6122
1 3.25511 21.2693 10.6122
1 3.24769 22.0848 9.83415
1 2.47269 21.2749 9.7964
1 4.04881 22.063 10.6122
1 4.84251 21.2693 10.6122
1 4.83848 22.0671 9.85088
1 4.04442 21.2523 9.80399
1 5.63621 22.063 10.6122
1 6.42991 21.2693 10.6122
1 6.42546 22.0716 9.83624
1 5.64861 21.2663 9.84618
1 7.22361 22.063 10.6122
1 8.01732 21.2693 10.6122
1 8.04998 22.0583 9.84087
1 7.21093 21.2522 9.84107
1 8.81102 22.063 10.6122
1 9.60472 21.2693 10.6122
1 9.61993 22.0573 9.83203
1 8.83739 21.2501 9.80501
1 10.3984 22.063 10.6122
1 11.1921 21.2693 10.6122
1 11.1786 22.0556 9.81525
1 10.4118 21.2573 9.8359
1 11.9858 22.063 10.6122
1 12.7795 21.2693 10.6122
1 12.765 22.0839 9.84129
1 11.9828 21.243 9.8169
1 13.5732 22.063 10.6122
1 14.3669 21.2693 10.6122
1 14.3106 22.0809 9.74068
1 13.5475 21.2894 9.83408
1 15 20.4756 10.6122
1 15.7937 19.6819 10.6122
1 15.8343 20.4972 9.81012
1 15.0542 19.703 9.79694
1 16.5874 20.4756 10.6122
1 17.3811 19.6819 10.6122
1 17.3948 20.4646 9.81297
1 16.5944 19.6604 9.82655
1 18.1748 20.4756 10.6122
1 18.9685 19.6819 10.6122
1 18.9848 20.4554 9.8169
1 18.1945 19.6772 9.81272
1 19.7622 20.4756 10.6122
1 20.5559 19.6819 10.6122
1 20.5604 20.4842 9.82123
1 19.7775 19.6812 9.81123
1 21.3496 20.4756 10.6122
1 22.1433 19.6819 10.6122
1 22.1642 20.4672 9.82393
1 21.3456 19.6983 9.80718
1 22.937 20.4756 10.6122
1 23.7307 19.6819 10.6122
1 23.7104 20.4703 9.81392
1 22.9301 19.6982 9.80261
1 24.5244 20.4756 10.6122
1 25.3181 19.6819 10.6122
1 25.3234 20.49 9.82606
1 24.5148 19.699 9.82655
1 26.1118 20.4756 10.6122
1 26.9055 19.6819 10.6122
1 26.897 20.4574 9.82702
1 26.1015 19.6595 9.84221
1 27.6992 20.4756 10.6122
1 28.4929 19.6819 10.6122
1 28.4965 20.479 9.79927
1 27.6879 19.6913 9.81341
1 29.2866 20.4756 10.6122
1 0.08031 19.6819 10.6122
1 0.0624455 20.4728 9.8263
1 29.2952 19.6702 9.8101
1 0.874011 20.4756 10.6122
1 1.66771 19.6819 10.6122
1 1.66238 20.4827 9.82305
1 0.873871 19.6985 9.82367
1 2.46141 20.4756 10.6122
1 3.25511 19.6819 10.6122
1 3.24714 20.4515 9.81792
1 2.44547 19.6639 9.81381
1 4.04881 20.4756 10.6122
1 4.84251 19.6819 10.6122
1 4.85135 20.4593 9.83635
1 4.08737 19.6711 9.82594
1 5.63621 20.4756 10.6122
1 6.42991 19.6819 10.6122
1 6.43691 20.4624 9.81547
1 5.64162 19.6857 9.81225
1 7.22361 20.4756 10.6122
1 8.01732 19.6819 10.6122
1 8.02669 20.4578 9.84527
1 7.24369 19.6865 9.82477
1 8.81102 20.4756 10.6122
1 9.60472 19.6819 10.6122
1 9.62543 20.468 9.83594
1 8.80194 19.6847 9.83883
1 10.3984 20.4756 10.6122
1 11.1921 19.6819 10.6122
1 11.1975 20.4641 9.81786
1 10.4057 19.6683 9.8109
1 11.9858 20.4756 10.6122
1 12.7795 19.6819 10.6122
1 12.7701 20.4811 9.83165
1 11.995 19.6867 9.82
1 13.5732 20.4756 10.6122
1 14.3669 19.6819 10.6122
1 14.3107 20.486 9.77551
1 13.5347 19.6934 9.83063
1 15 18.8882 10.6122
1 15.7937 18.0945 10.6122
1 15.8326 18.8906 9.79692
1 15.0546 18.0799 9.80019
1 16.5874 18.8882 10.6122
1 17.3811 18.0945 10.6122
1 17.3906 18.87 9.8223
1 16.6028 18.1017 9.78423
1 18.1748 18.8882 10.6122
1 18.9685 18.0945 10.6122
1 18.979 18.8855 9.80065
1 18.1842 18.1198 9.80676
1 19.7622 18.8882 10.6122
1 20.5559 18.0945 10.6122
1 20.5548 18.8931 9.83269
1 19.7503 18.0845 9.83164
1 21.3496 18.8882 10.6122
1 22.1433 18.0945 10.6122
1 22.1219 18.8881 9.80848
1 21.3568 18.0884 9.81975
1 22.937 18.8882 10.6122
1 23.7307 18.0945 10.6122
1 23.7393 18.8729 9.81953
1 22.9062 18.0808 9.81647
1 24.5244 18.8882 10.6122
1 25.3181 18.0945 10.6122
1 25.3245 18.8888 9.80079
1 24.5164 18.0932 9.81456
1 26.1118 18.8882 10.6122
1 26.9055 18.0945 10.6122
1 26.9105 18.9048 9.82499
1 26.0926 18.0891 9.80858
1 27.6992 18.8882 10.6122
1 28.4929 18.0945 10.6122
1 28.4932 18.8834 9.8087
1 27.7129 18.1018 9.81987
1 29.2866 18.8882 10.6122
1 0.08031 18.0945 10.6122
1 0.086615 18.8883 9.79128
1 29.2836 18.102 9.82956
1 0.874011 18.8882 10.6122
1 1.66771 18.0945 10.6122
1 1.65701 18.8939 9.81417
1 0.847043 18.1009 9.80619
1 2.46141 18.8882 10.6122
1 3.25511 18.0945 10.6122
1 3.24321 18.8862 9.81818
1 2.46569 18.1184 9.8036
1 4.04881 18.8882 10.6122
1 4.84251 18.0945 10.6122
1 4.839 18.8817 9.82602
1 4.05048 18.1119 9.82096
1 5.63621 18.8882 10.6122
1 6.42991 18.0945 10.6122
1 6.43528 18.8888 9.82191
1 5.64666 18.0938 9.81721
1 7.22361 18.8882 10.6122
1 8.01732 18.0945 10.6122
1 8.03479 18.8974 9.8255
1 7.2432 18.1167 9.83287
1 8.81102 18.8882 10.6122
1 9.60472 18.0945 10.6122
1 9.58519 18.8961 9.83771
1 8.82352 18.0951 9.82483
1 10.3984 18.8882 10.6122
1 11.1921 18.0945 10.6122
1 11.1915 18.89 9.82598
1 10.4094 18.1166 9.80616
1 11.9858 18.8882 10.6122
1 12.7795 18.0945 10.6122
1 12.7769 18.8685 9.82784
1 11.9824 18.1039 9.8129
1 13.5732 18.8882 10.6122
1 14.3669 18.0945 10.6122
1 14.3052 18.8974 9.77027
1 13.5295 18.0947 9.83071
1 15 17.3008 10.6122
1 15.7937 16.5071 10.6122
1 15.8389 17.331 9.81671
1 15.0749 16.5062 9.78886
1 16.5874 17.3008 10.6122
1 17.3811 16.5071 10.6122
1 17.3737 17.2942 9.83224
1 16.5966 16.513 9.80878
1 18.1748 17.3008 10.6122
1 18.9685 16.5071 10.6122
1 18.9663 17.2811 9.82163
1 18.1658 16.4819 9.82385
1 19.7622 17.3008 10.6122
1 20.5559 16.5071 10.6122
1 20.5329 17.3103 9.81675
1 19.7561 16.5021 9.8229
1 21.3496 17.3008 10.6122
1 22.1433 16.5071 10.6122
1 22.1389 17.29 9.83242
1 21.3564 16.5314 9.85486
1 22.937 17.3008 10.6122
1 23.7307 16.5071 10.6122
1 23.7119 17.279 9.81907
1 22.9391 16.4942 9.81992
1 24.5244 17.3008 10.6122
1 25.3181 16.5071 10.6122
1 25.3208 17.3066 9.83841
1 24.5357 16.525 9.80909
1 26.1118 17.3008 10.6122
1 26.9055 16.5071 10.6122
1 26.9079 17.2839 9.8223
1 26.1026 16.482 9.82154
1 27.6992 17.3008 10.6122
1 28.4929 16.5071 10.6122
1 28.5039 17.3067 9.82045
1 27.7075 16.507 9.80446
1 29.2866 17.3008 10.6122
1 0.08031 16.5071 10.6122
1 0.0814417 17.2914 9.80792
1 29.2772 16.4972 9.83047
1 0.874011 17.3008 10.6122
1 1.66771 16.5071 10.6122
1 1.6959 17.3373 9.82017
1 0.86708 16.5326 9.82414
1 2.46141 17.3008 10.6122
1 3.25511 16.5071 10.6122
1 3.22019 17.3107 9.82921
1 2.45799 16.4901 9.80735
1 4.04881 17.3008 10.6122
1 4.84251 16.5071 10.6122
1 4.82472 17.3068 9.82416
1 4.03749 16.511 9.82016
1 5.63621 17.3008 10.6122
1 6.42991 16.5071 10.6122
1 6.47213 17.3239 9.82486
1 5.62888 16.5264 9.83064
1 7.22361 17.3008 10.6122
1 8.01732 16.5071 10.6122
1 8.01709 17.3219 9.80628
1 7.25349 16.5174 9.8443
1 8.81102 17.3008 10.6122
1 9.60472 16.5071 10.6122
1 9.61373 17.3134 9.82557
1 8.81246 16.5203 9.82096
1 10.3984 17.3008 10.6122
1 11.1921 16.5071 10.6122
1 11.1919 17.3226 9.83008
1 10.3913 16.536 9.81543
1 11.9858 17.3008 10.6122
1 12.7795 16.5071 10.6122
1 12.7656 17.3049 9.81057
1 11.9568 16.5158 9.79298
1 13.5732 17.3008 10.6122
1 14.3669 16.5071 10.6122
1 14.2861 17.3001 9.7863
1 13.5622 16.5042 9.83826
1 15 15.7134 10.6122
1 15.7937 14.9197 10.6122
1 15.8184 15.6857 9.80798
1 15.0616 14.9072 9.78099
1 16.5874 15.7134 10.6122
1 17.3811 14.9197 10.6122
1 17.3838 15.7149 9.82712
1 16.6075 14.9532 9.82856
1 18.1748 15.7134 10.6122
1 18.9685 14.9197 10.6122
1 19.0148 15.7068 9.8117
1 18.1993 14.9221 9.83967
1 19.7622 15.7134 10.6122
1 20.5559 14.9197 10.6122
1 20.5627 15.7245 9.83131
1 19.7617 14.9148 9.85864
1 21.3496 15.7134 10.6122
1 22.1433 14.9197 10.6122
1 22.1483 15.7135 9.82923
1 21.3355 14.9121 9.83386
1 22.937 15.7134 10.6122
1 23.7307 14.9197 10.6122
1 23.7456 15.704 9.82191
1 22.9352 14.896 9.83751
1 24.5244 15.7134 10.6122
1 25.3181 14.9197 10.6122
1 25.3109 15.6987 9.83562
1 24.5104 14.9106 9.83053
1 26.1118 15.7134 10.6122
1 26.9055 14.9197 10.6122
1 26.8957 15.7109 9.80034
1 26.1293 14.8972 9.81595
1 27.6992 15.7134 10.6122
1 28.4929 14.9197 10.6122
1 28.5144 15.6876 9.80508
1 27.703 14.9119 9.80891
1 29.2866 15.7134 10.6122
1 0.08031 14.9197 10.6122
1 0.0956267 15.7204 9.81277
1 29.2852 14.9175 9.80871
1 0.874011 15.7134 10.6122
1 1.66771 14.9197 10.6122
1 1.66445 15.7526 9.81392
1 0.873668 14.933 9.80347
1 2.46141 15.7134 10.6122
1 3.25511 14.9197 10.6122
1 3.26907 15.6967 9.84154
1 2.46 14.9316 9.81897
1 4.04881 15.7134 10.6122
1 4.84251 14.9197 10.6122
1 4.85323 15.7208 9.80346
1 4.05234 14.9117 9.83438
1 5.63621 15.7134 10.6122
1 6.42991 14.9197 10.6122
1 6.44311 15.7148 9.80971
1 5.62131 14.9083 9.79411
1 7.22361 15.7134 10.6122
1 8.01732 14.9197 10.6122
1 8.02182 15.7144 9.81459
1 7.21646 14.9044 9.82249
1 8.81102 15.7134 10.6122
1 9.60472 14.9197 10.6122
1 9.5926 15.7152 9.79157
1 8.81666 14.9069 9.81006
1 10.3984 15.7134 10.6122
1 11.1921 14.9197 10.6122
1 11.1706 15.7232 9.82805
1 10.4078 14.9102 9.81067
1 11.9858 15.7134 10.6122
1 12.7795 14.9197 10.6122
1 12.7541 15.7158 9.83654
1 11.9761 14.9217 9.83663
1 13.5732 15.7134 10.6122
1 14.3669 14.9197 10.6122
1 14.2961 15.6988 9.78099
1 13.5471 14.886 9.81981
1 15 14.126 10.6122
1 15.7937 13.3323 10.6122
1 15.8395 14.1172 9.78312
1 15.0969 13.3387 9.77248
1 16.5874 14.126 10.6122
1 17.3811 13.3323 10.6122
1 17.3573 14.1351 9.82734
1 16.5984 13.3249 9.82468
1 18.1748 14.126 10.6122
1 18.9685 13.3323 10.6122
1 18.9659 14.1267 9.81532
1 18.1514 13.335 9.81907
1 19.7622 14.126 10.6122
1 20.5559 13.3323 10.6122
1 20.543 14.1108 9.82226
1 19.7623 13.3185 9.81558
1 21.3496 14.126 10.6122
1 22.1433 13.3323 10.6122
1 22.1366 14.1404 9.81534
1 21.3624 13.3385 9.83805
1 22.937 14.126 10.6122
1 23.7307 13.3323 10.6122
1 23.7425 14.137 9.83642
1 22.931 13.3475 9.8191
1 24.5244 14.126 10.6122
1 25.3181 13.3323 10.6122
1 25.3376 14.1255 9.83533
1 24.5234 13.3555 9.80811
1 26.1118 14.126 10.6122
1 26.9055 13.3323 10.6122
1 26.9188 14.1265 9.789
1 26.0839 13.3174 9.8099
1 27.6992 14.126 10.6122
1 28.4929 13.3323 10.6122
1 28.475 14.1138 9.81948
1 27.7 13.3132 9.79118
1 29.2866 14.126 10.6122
1 0.08031 13.3323 10.6122
1 0.0672231 14.1344 9.82254
1 29.2904 13.3429 9.81135
1 0.874011 14.126 10.6122
1 1.66771 13.3323 10.6122
1 1.66102 14.1288 9.79983
1 0.870744 13.3369 9.82706
1 2.46141 14.126 10.6122
1 3.25511 13.3323 10.6122
1 3.24706 14.1295 9.81722
1 2.45804 13.3483 9.82841
1 4.04881 14.126 10.6122
1 4.84251 13.3323 10.6122
1 4.83132 14.1197 9.8023
1 4.05269 13.3658 9.81139
1 5.63621 14.126 10.6122
1 6.42991 13.3323 10.6122
1 6.43752 14.1145 9.81114
1 5.63041 13.3356 9.80869
1 7.22361 14.126 10.6122
1 8.01732 13.3323 10.6122
1 8.0125 14.103 9.81578
1 7.21085 13.3438 9.80866
1 8.81102 14.126 10.6122
1 9.60472 13.3323 10.6122
1 9.5988 14.1184 9.82525
1 8.79709 13.3316 9.82394
1 10.3984 14.126 10.6122
1 11.1921 13.3323 10.6122
1 11.1962 14.1144 9.8077
1 10.4068 13.3243 9.81427
1 11.9858 14.126 10.6122
1 12.7795 13.3323 10.6122
1 12.7331 14.126 9.81185
1 11.9577 13.3198 9.83578
1 13.5732 14.126 10.6122
1 14.3669 13.3323 10.6122
1 14.2993 14.1261 9.79309
1 13.5431 13.3359 9.82155
1 15 12.5386 10.6122
1 15.7937 11.7449 10.6122
1 15.8323 12.5413 9.81465
1 15.0651 11.727 9.78734
1 16.5874 12.5386 10.6122
1 17.3811 11.7449 10.6122
1 17.4054 12.525 9.80782
1 16.5792 11.7178 9.81819
1 18.1748 12.5386 10.6122
1 18.9685 11.7449 10.6122
1 18.9895 12.523 9.80598
1 18.1782 11.7492 9.81662
1 19.7622 12.5386 10.6122
1 20.5559 11.7449 10.6122
1 20.5656 12.5383 9.80656
1 19.763 11.7432 9.82783
1 21.3496 12.5386 10.6122
1 22.1433 11.7449 10.6122
1 22.1468 12.5137 9.82048
1 21.3605 11.7282 9.83396
1 22.937 12.5386 10.6122
1 23.7307 11.7449 10.6122
1 23.7075 12.5495 9.82692
1 22.943 11.7561 9.80917
1 24.5244 12.5386 10.6122
1 25.3181 11.7449 10.6122
1 25.2807 12.5471 9.83245
1 24.5116 11.7694 9.8153
1 26.1118 12.5386 10.6122
1 26.9055 11.7449 10.6122
1 26.8868 12.5457 9.79488
1 26.0898 11.7399 9.81026
1 27.6992 12.5386 10.6122
1 28.4929 11.7449 10.6122
1 28.4696 12.5297 9.80415
1 27.6891 11.7607 9.80467
1 29.2866 12.5386 10.6122
1 0.08031 11.7449 10.6122
1 0.0768721 12.5474 9.80893
1 29.279 11.7774 9.83682
1 0.874011 12.5386 10.6122
1 1.66771 11.7449 10.6122
1 1.66684 12.5235 9.81147
1 0.852513 11.7567 9.81396
1 2.46141 12.5386 10.6122
1 3.25511 11.7449 10.6122
1 3.27209 12.533 9.80156
1 2.4407 11.7467 9.80157
1 4.04881 12.5386 10.6122
1 4.84251 11.7449 10.6122
1 4.82458 12.5423 9.79779
1 4.04725 11.7273 9.82028
1 5.63621 12.5386 10.6122
1 6.42991 11.7449 10.6122
1 6.42146 12.5278 9.81944
1 5.63115 11.7393 9.8201
1 7.22361 12.5386 10.6122
1 8.01732 11.7449 10.6122
1 8.03119 12.5341 9.82043
1 7.22057 11.7491 9.81004
1 8.81102 12.5386 10.6122
1 9.60472 11.7449 10.6122
1 9.61798 12.5312 9.79934
1 8.8163 11.7334 9.80949
1 10.3984 12.5386 10.6122
1 11.1921 11.7449 10.6122
1 11.1729 12.5248 9.82652
1 10.3893 11.7413 9.82831
1 11.9858 12.5386 10.6122
1 12.7795 11.7449 10.6122
1 12.7853 12.5249 9.85798
1 11.9661 11.7412 9.83489
1 13.5732 12.5386 10.6122
1 14.3669 11.7449 10.6122
1 14.301 12.5372 9.77787
1 13.5567 11.7305 9.81916
1 15 10.9512 10.6122
1 15.7937 10.1575 10.6122
1 15.8041 10.9417 9.79269
1 15.0519 10.1415 9.78617
1 16.5874 10.9512 10.6122
1 17.3811 10.1575 10.6122
1 17.4038 10.953 9.82168
1 16.5976 10.1441 9.7931
1 18.1748 10.9512 10.6122
1 18.9685 10.1575 10.6122
1 18.9532 10.9515 9.82426
1 18.1914 10.1574 9.81201
1 19.7622 10.9512 10.6122
1 20.5559 10.1575 10.6122
1 20.5572 10.95 9.83142
1 19.7603 10.1709 9.82632
1 21.3496 10.9512 10.6122
1 22.1433 10.1575 10.6122
1 22.1689 10.96 9.82902
1 21.3667 10.1622 9.8226
1 22.937 10.9512 10.6122
1 23.7307 10.1575 10.6122
1 23.7326 10.9595 9.80666
1 22.9443 10.1801 9.80774
1 24.5244 10.9512 10.6122
1 25.3181 10.1575 10.6122
1 25.3131 10.9527 9.84952
1 24.5248 10.1678 9.84188
1 26.1118 10.9512 10.6122
1 26.9055 10.1575 10.6122
1 26.9128 10.9627 9.84661
1 26.1041 10.1692 9.8176
1 27.6992 10.9512 10.6122
1 28.4929 10.1575 10.6122
1 28.4793 10.9573 9.81294
1 27.6994 10.1686 9.79587
1 29.2866 10.9512 10.6122
1 0.08031 10.1575 10.6122
1 0.0790034 10.9436 9.8269
1 29.2841 10.1431 9.83743
1 0.874011 10.9512 10.6122
1 1.66771 10.1575 10.6122
1 1.65771 10.9225 9.80824
1 0.849002 10.1631 9.81262
1 2.46141 10.9512 10.6122
1 3.25511 10.1575 10.6122
1 3.21607 10.9328 9.83024
1 2.45677 10.1401 9.79437
1 4.04881 10.9512 10.6122
1 4.84251 10.1575 10.6122
1 4.84739 10.9186 9.8145
1 4.02295 10.1444 9.80987
1 5.63621 10.9512 10.6122
1 6.42991 10.1575 10.6122
1 6.44365 10.9446 9.8222
1 5.6546 10.164 9.82594
1 7.22361 10.9512 10.6122
1 8.01732 10.1575 10.6122
1 8.01842 10.9319 9.8374
1 7.20528 10.1519 9.81183
1 8.81102 10.9512 10.6122
1 9.60472 10.1575 10.6122
1 9.593 10.9434 9.80171
1 8.80789 10.1394 9.81248
1 10.3984 10.9512 10.6122
1 11.1921 10.1575 10.6122
1 11.1778 10.959 9.82659
1 10.3908 10.1734 9.79604
1 11.9858 10.9512 10.6122
1 12.7795 10.1575 10.6122
1 12.762 10.9352 9.81098
1 11.9765 10.126 9.80693
1 13.5732 10.9512 10.6122
1 14.3669 10.1575 10.6122
1 14.3008 10.9453 9.80374
1 13.5311 10.1668 9.80064
1 15 9.36379 10.6122
1 15.7937 8.57009 10.6122
1 15.837 9.33168 9.78876
1 15.0623 8.57472 9.77873
1 16.5874 9.36379 10.6122
1 17.3811 8.57009 10.6122
1 17.3963 9.36686 9.80692
1 16.6125 8.56785 9.84429
1 18.1748 9.36379 10.6122
1 18.9685 8.57009 10.6122
1 19.0102 9.36459 9.83287
1 18.2116 8.58316 9.8094
1 19.7622 9.36379 10.6122
1 20.5559 8.57009 10.6122
1 20.5739 9.37084 9.81966
1 19.7854 8.57353 9.82785
1 21.3496 9.36379 10.6122
1 22.1433 8.57009 10.6122
1 22.1551 9.37061 9.81747
1 21.3709 8.58489 9.83252
1 22.937 9.36379 10.6122
1 23.7307 8.57009 10.6122
1 23.7446 9.36563 9.8261
1 22.9478 8.56091 9.83769
1 24.5244 9.36379 10.6122
1 25.3181 8.57009 10.6122
1 25.3082 9.38142 9.83641
1 24.5248 8.57011 9.81847
1 26.1118 9.36379 10.6122
1 26.9055 8.57009 10.6122
1 26.9018 9.37662 9.8112
1 26.109 8.55783 9.83209
1 27.6992 9.36379 10.6122
1 28.4929 8.57009 10.6122
1 28.4755 9.38501 9.82647
1 27.7078 8.59267 9.81514
1 29.2866 9.36379 10.6122
1 0.08031 8.57009 10.6122
1 0.0858877 9.33412 9.83046
1 29.3088 8.5566 9.84872
1 0.874011 9.36379 10.6122
1 1.66771 8.57009 10.6122
1 1.66484 9.36171 9.79481
1 0.878152 8.55615 9.80356
1 2.46141 9.36379 10.6122
1 3.25511 8.57009 10.6122
1 3.24447 9.35614 9.78964
1 2.44875 8.5782 9.81765
1 4.04881 9.36379 10.6122
1 4.84251 8.57009 10.6122
1 4.83691 9.36673 9.80294
1 4.04712 8.56637 9.80014
1 5.63621 9.36379 10.6122
1 6.42991 8.57009 10.6122
1 6.41903 9.37376 9.82221
1 5.65399 8.56191 9.81796
1 7.22361 9.36379 10.6122
1 8.01732 8.57009 10.6122
1 8.01572 9.34997 9.82026
1 7.23831 8.59342 9.80901
1 8.81102 9.36379 10.6122
1 9.60472 8.57009 10.6122
1 9.60347 9.36167 9.82651
1 8.80277 8.55862 9.81332
1 10.3984 9.36379 10.6122
1 11.1921 8.57009 10.6122
1 11.1885 9.35645 9.81954
1 10.3821 8.58413 9.8116
1 11.9858 9.36379 10.6122
1 12.7795 8.57009 10.6122
1 12.7821 9.34902 9.81791
1 11.9657 8.58571 9.82726
1 13.5732 9.36379 10.6122
1 14.3669 8.57009 10.6122
1 14.2876 9.35413 9.79162
1 13.5636 8.55697 9.8308
1 15 7.77639 10.6122
1 15.7937 6.98268 10.6122
1 15.8231 7.76759 9.77336
1 15.0604 6.98117 9.79134
1 16.5874 7.77639 10.6122
1 17.3811 6.98268 10.6122
1 17.3862 7.78218 9.81307
1 16.6174 6.99773 9.82836
1 18.1748 7.77639 10.6122
1 18.9685 6.98268 10.6122
1 19.0069 7.78315 9.81044
1 18.1943 6.98327 9.83123
1 19.7622 7.77639 10.6122
1 20.5559 6.98268 10.6122
1 20.5557 7.79296 9.82648
1 19.7877 7.00228 9.82315
1 21.3496 7.77639 10.6122
1 22.1433 6.98268 10.6122
1 22.1429 7.7652 9.83946
1 21.3501 7.00173 9.82065
1 22.937 7.77639 10.6122
1 23.7307 6.98268 10.6122
1 23.7275 7.78637 9.8068
1 22.9382 6.97537 9.83199
1 24.5244 7.77639 10.6122
1 25.3181 6.98268 10.6122
1 25.3163 7.78673 9.82076
1 24.5492 6.98652 9.81904
1 26.1118 7.77639 10.6122
1 26.9055 6.98268 10.6122
1 26.9033 7.79656 9.83143
1 26.1192 6.9648 9.81883
1 27.6992 7.77639 10.6122
1 28.4929 6.98268 10.6122
1 28.4748 7.7808 9.80423
1 27.6853 6.99198 9.80822
1 29.2866 7.77639 10.6122
1 0.08031 6.98268 10.6122
1 0.0584205 7.77249 9.81276
1 29.3062 6.98759 9.80948
1 0.874011 7.77639 10.6122
1 1.66771 6.98268 10.6122
1 1.65063 7.76141 9.7927
1 0.868995 7.00034 9.82078
1 2.46141 7.77639 10.6122
1 3.25511 6.98268 10.6122
1 3.24719 7.7683 9.81982
1 2.46319 7.01458 9.80877
1 4.04881 7.77639 10.6122
1 4.84251 6.98268 10.6122
1 4.84834 7.77103 9.79797
1 4.04873 6.98885 9.80094
1 5.63621 7.77639 10.6122
1 6.42991 6.98268 10.6122
1 6.42556 7.75764 9.83728
1 5.64809 6.98345 9.79143
1 7.22361 7.77639 10.6122
1 8.01732 6.98268 10.6122
1 8.01663 7.76776 9.82174
1 7.21174 6.97623 9.8151
1 8.81102 7.77639 10.6122
1 9.60472 6.98268 10.6122
1 9.60691 7.78843 9.81855
1 8.80723 6.98756 9.8269
1 10.3984 7.77639 10.6122
1 11.1921 6.98268 10.6122
1 11.1882 7.7929 9.82995
1 10.3925 6.98552 9.83294
1 11.9858 7.77639 10.6122
1 12.7795 6.98268 10.6122
1 12.7521 7.77176 9.83245
1 11.9773 6.97348 9.81016
1 13.5732 7.77639 10.6122
1 14.3669 6.98268 10.6122
1 14.294 7.77751 9.792
1 13.5209 6.9582 9.78445
1 15 6.18898 10.6122
1 15.7937 5.39528 10.6122
1 15.818 6.19528 9.78737
1 15.0704 5.42955 9.8088
1 16.5874 6.18898 10.6122
1 17.3811 5.39528 10.6122
1 17.3883 6.18911 9.83536
1 16.5839 5.37469 9.81488
1 18.1748 6.18898 10.6122
1 18.9685 5.39528 10.6122
1 18.9932 6.20006 9.8139
1 18.186 5.39582 9.82719
1 19.7622 6.18898 10.6122
1 20.5559 5.39528 10.6122
1 20.5685 6.19718 9.80655
1 19.7811 5.39676 9.82481
1 21.3496 6.18898 10.6122
1 22.1433 5.39528 10.6122
1 22.1405 6.20244 9.81826
1 21.3699 5.40799 9.84324