9376
Atoms. Timestep: 4000000
1 0.01125 3.55271e-15 10.6091
1 0.804951 29.2063 10.6091
1 0.838529 29.9307 9.77112
1 0.0871855 29.1885 9.77288
1 1.59865 3.55271e-15 10.6091
1 2.39235 29.2063 10.6091
1 2.40132 29.9172 9.76184
1 1.60534 29.1677 9.83645
1 3.18605 3.55271e-15 10.6091
1 3.97975 29.2063 10.6091
1 3.99006 29.9155 9.75438
1 3.15017 29.1975 9.80207
1 4.77345 3.55271e-15 10.6091
1 5.56715 29.2063 10.6091
1 5.57611 29.9219 9.78933
1 4.7825 29.1851 9.80753
1 6.36085 3.55271e-15 10.6091
1 7.15455 29.2063 10.6091
1 7.15798 29.9238 9.78044
1 6.362 29.164 9.78791
1 7.94826 3.55271e-15 10.6091
1 8.74196 29.2063 10.6091
1 8.73583 29.9474 9.78451
1 7.94186 29.1642 9.82154
1 9.53566 3.55271e-15 10.6091
1 10.3294 29.2063 10.6091
1 10.3006 29.9358 9.76046
1 9.50589 29.1864 9.83263
1 11.1231 3.55271e-15 10.6091
1 11.9168 29.2063 10.6091
1 11.9054 29.9441 9.77562
1 11.0833 29.1891 9.80414
1 12.7105 3.55271e-15 10.6091
1 13.5042 29.2063 10.6091
1 13.5146 29.9478 9.77878
1 12.697 29.1934 9.81753
1 14.2979 3.55271e-15 10.6091
1 15.0916 29.2063 10.6091
1 15.1058 29.9386 9.80085
1 14.3138 29.1748 9.81944
1 15.8853 3.55271e-15 10.6091
1 16.679 29.2063 10.6091
1 16.6652 29.9189 9.78793
1 15.8875 29.1488 9.76248
1 17.4727 3.55271e-15 10.6091
1 18.2664 29.2063 10.6091
1 18.2543 29.9287 9.78392
1 17.4613 29.1632 9.80178
1 19.0601 3.55271e-15 10.6091
1 19.8538 29.2063 10.6091
1 19.8478 29.9332 9.7777
1 19.0299 29.1859 9.79195
1 20.6475 3.55271e-15 10.6091
1 21.4412 29.2063 10.6091
1 21.4547 29.9395 9.79289
1 20.6596 29.187 9.82214
1 22.2349 3.55271e-15 10.6091
1 23.0286 29.2063 10.6091
1 23.0146 29.9267 9.79237
1 22.2373 29.178 9.79899
1 23.8223 3.55271e-15 10.6091
1 24.616 29.2063 10.6091
1 24.6271 29.9243 9.78799
1 23.8254 29.1736 9.81152
1 25.4097 3.55271e-15 10.6091
1 26.2034 29.2063 10.6091
1 26.202 29.9321 9.77404
1 25.3827 29.153 9.79994
1 26.9971 3.55271e-15 10.6091
1 27.7908 29.2063 10.6091
1 27.7721 29.9037 9.77069
1 26.9884 29.1735 9.81192
1 28.5845 3.55271e-15 10.6091
1 29.3782 29.2063 10.6091
1 29.3382 29.9366 9.74565
1 28.5621 29.1935 9.79244
1 0.01125 28.4126 10.6091
1 0.804951 27.6189 10.6091
1 0.825119 28.3897 9.83951
1 0.0932249 27.6001 9.78578
1 1.59865 28.4126 10.6091
1 2.39235 27.6189 10.6091
1 2.40454 28.3947 9.81695
1 1.60704 27.6279 9.82616
1 3.18605 28.4126 10.6091
1 3.97975 27.6189 10.6091
1 3.96779 28.3841 9.79759
1 3.21459 27.6231 9.81233
1 4.77345 28.4126 10.6091
1 5.56715 27.6189 10.6091
1 5.56315 28.392 9.83438
1 4.77544 27.5913 9.83212
1 6.36085 28.4126 10.6091
1 7.15455 27.6189 10.6091
1 7.14214 28.3978 9.81301
1 6.35709 27.6252 9.81871
1 7.94826 28.4126 10.6091
1 8.74196 27.6189 10.6091
1 8.73526 28.3968 9.82809
1 7.952 27.6209 9.83343
1 9.53566 28.4126 10.6091
1 10.3294 27.6189 10.6091
1 10.3132 28.3858 9.82026
1 9.53748 27.6117 9.8037
1 11.1231 28.4126 10.6091
1 11.9168 27.6189 10.6091
1 11.9122 28.414 9.79644
1 11.1351 27.5882 9.8503
1 12.7105 28.4126 10.6091
1 13.5042 27.6189 10.6091
1 13.5003 28.3963 9.82342
1 12.6935 27.5991 9.81511
1 14.2979 28.4126 10.6091
1 15.0916 27.6189 10.6091
1 15.098 28.3983 9.79633
1 14.323 27.6045 9.83314
1 15.8853 28.4126 10.6091
1 16.679 27.6189 10.6091
1 16.6581 28.4043 9.81444
1 15.8947 27.6237 9.79825
1 17.4727 28.4126 10.6091
1 18.2664 27.6189 10.6091
1 18.2627 28.386 9.81178
1 17.46 27.6065 9.8184
1 19.0601 28.4126 10.6091
1 19.8538 27.6189 10.6091
1 19.8513 28.4005 9.80388
1 19.0585 27.5795 9.81573
1 20.6475 28.4126 10.6091
1 21.4412 27.6189 10.6091
1 21.4398 28.3784 9.80823
1 20.6452 27.5804 9.82961
1 22.2349 28.4126 10.6091
1 23.0286 27.6189 10.6091
1 23.0268 28.3652 9.7981
1 22.2329 27.6061 9.81464
1 23.8223 28.4126 10.6091
1 24.616 27.6189 10.6091
1 24.6075 28.4025 9.82294
1 23.8476 27.6147 9.83002
1 25.4097 28.4126 10.6091
1 26.2034 27.6189 10.6091
1 26.1814 28.3911 9.84846
1 25.4126 27.6382 9.81611
1 26.9971 28.4126 10.6091
1 27.7908 27.6189 10.6091
1 27.7851 28.4207 9.78122
1 26.9822 27.6252 9.79073
1 28.5845 28.4126 10.6091
1 29.3782 27.6189 10.6091
1 29.3317 28.3794 9.76311
1 28.5175 27.5915 9.78523
1 0.01125 26.8252 10.6091
1 0.804951 26.0315 10.6091
1 0.824923 26.8568 9.79544
1 0.070809 26.0257 9.80536
1 1.59865 26.8252 10.6091
1 2.39235 26.0315 10.6091
1 2.37352 26.851 9.84078
1 1.5962 26.0619 9.81797
1 3.18605 26.8252 10.6091
1 3.97975 26.0315 10.6091
1 3.99097 26.8212 9.83267
1 3.19869 26.035 9.83161
1 4.77345 26.8252 10.6091
1 5.56715 26.0315 10.6091
1 5.6064 26.8238 9.80082
1 4.77075 26.0055 9.78692
1 6.36085 26.8252 10.6091
1 7.15455 26.0315 10.6091
1 7.14498 26.8454 9.83183
1 6.33175 26.0399 9.80375
1 7.94826 26.8252 10.6091
1 8.74196 26.0315 10.6091
1 8.75796 26.8261 9.81463
1 7.93616 26.0408 9.79649
1 9.53566 26.8252 10.6091
1 10.3294 26.0315 10.6091
1 10.3145 26.8144 9.79759
1 9.54581 26.0133 9.82192
1 11.1231 26.8252 10.6091
1 11.9168 26.0315 10.6091
1 11.9202 26.8158 9.82651
1 11.1242 26.029 9.81138
1 12.7105 26.8252 10.6091
1 13.5042 26.0315 10.6091
1 13.4992 26.8231 9.82902
1 12.7153 26.0057 9.8353
1 14.2979 26.8252 10.6091
1 15.0916 26.0315 10.6091
1 15.1114 26.8256 9.80859
1 14.3076 26.0263 9.813
1 15.8853 26.8252 10.6091
1 16.679 26.0315 10.6091
1 16.6826 26.8358 9.82968
1 15.8938 26.0225 9.80689
1 17.4727 26.8252 10.6091
1 18.2664 26.0315 10.6091
1 18.2721 26.8038 9.83575
1 17.4757 25.9999 9.83867
1 19.0601 26.8252 10.6091
1 19.8538 26.0315 10.6091
1 19.8465 26.8105 9.82602
1 19.0451 26.0337 9.83626
1 20.6475 26.8252 10.6091
1 21.4412 26.0315 10.6091
1 21.4442 26.8185 9.80058
1 20.6669 26.0283 9.81827
1 22.2349 26.8252 10.6091
1 23.0286 26.0315 10.6091
1 23.0316 26.8138 9.84358
1 22.2414 26.0279 9.81366
1 23.8223 26.8252 10.6091
1 24.616 26.0315 10.6091
1 24.616 26.8154 9.83698
1 23.8356 26.0286 9.84803
1 25.4097 26.8252 10.6091
1 26.2034 26.0315 10.6091
1 26.1979 26.8125 9.81911
1 25.4205 26.0353 9.85387
1 26.9971 26.8252 10.6091
1 27.7908 26.0315 10.6091
1 27.7512 26.7988 9.81369
1 26.9896 26.0428 9.80626
1 28.5845 26.8252 10.6091
1 29.3782 26.0315 10.6091
1 29.3021 26.8068 9.76512
1 28.535 26.0343 9.8189
1 0.01125 25.2378 10.6091
1 0.804951 24.4441 10.6091
1 0.82704 25.2427 9.81071
1 0.057824 24.4134 9.78572
1 1.59865 25.2378 10.6091
1 2.39235 24.4441 10.6091
1 2.41033 25.2427 9.81288
1 1.63116 24.43 9.80461
1 3.18605 25.2378 10.6091
1 3.97975 24.4441 10.6091
1 3.98606 25.2565 9.81907
1 3.20875 24.4414 9.82025
1 4.77345 25.2378 10.6091
1 5.56715 24.4441 10.6091
1 5.5703 25.2387 9.8116
1 4.7721 24.4581 9.83101
1 6.36085 25.2378 10.6091
1 7.15455 24.4441 10.6091
1 7.15548 25.2569 9.82214
1 6.37327 24.4403 9.83967
1 7.94826 25.2378 10.6091
1 8.74196 24.4441 10.6091
1 8.75558 25.2417 9.80536
1 7.95899 24.4372 9.82269
1 9.53566 25.2378 10.6091
1 10.3294 24.4441 10.6091
1 10.3538 25.2263 9.80443
1 9.53879 24.449 9.81509
1 11.1231 25.2378 10.6091
1 11.9168 24.4441 10.6091
1 11.9211 25.2155 9.8295
1 11.1232 24.4169 9.81622
1 12.7105 25.2378 10.6091
1 13.5042 24.4441 10.6091
1 13.514 25.2406 9.82833
1 12.7448 24.4112 9.81709
1 14.2979 25.2378 10.6091
1 15.0916 24.4441 10.6091
1 15.0913 25.2368 9.81995
1 14.2718 24.4495 9.82536
1 15.8853 25.2378 10.6091
1 16.679 24.4441 10.6091
1 16.6561 25.2419 9.83303
1 15.8779 24.4457 9.81146
1 17.4727 25.2378 10.6091
1 18.2664 24.4441 10.6091
1 18.2851 25.2412 9.82053
1 17.471 24.4525 9.82179
1 19.0601 25.2378 10.6091
1 19.8538 24.4441 10.6091
1 19.8409 25.2281 9.79921
1 19.0526 24.417 9.80589
1 20.6475 25.2378 10.6091
1 21.4412 24.4441 10.6091
1 21.4276 25.2341 9.79774
1 20.6604 24.4517 9.81719
1 22.2349 25.2378 10.6091
1 23.0286 24.4441 10.6091
1 23.039 25.2185 9.80694
1 22.2356 24.4311 9.81636
1 23.8223 25.2378 10.6091
1 24.616 24.4441 10.6091
1 24.6425 25.2547 9.79902
1 23.8457 24.4335 9.81799
1 25.4097 25.2378 10.6091
1 26.2034 24.4441 10.6091
1 26.2006 25.2612 9.81267
1 25.4152 24.4722 9.79623
1 26.9971 25.2378 10.6091
1 27.7908 24.4441 10.6091
1 27.7735 25.2417 9.82187
1 26.9963 24.4281 9.82905
1 28.5845 25.2378 10.6091
1 29.3782 24.4441 10.6091
1 29.3016 25.2331 9.78284
1 28.5616 24.4349 9.79722
1 0.01125 23.6504 10.6091
1 0.804951 22.8567 10.6091
1 0.833532 23.6539 9.82319
1 0.0866761 22.8699 9.79252
1 1.59865 23.6504 10.6091
1 2.39235 22.8567 10.6091
1 2.42319 23.6272 9.8217
1 1.60094 22.8648 9.81729
1 3.18605 23.6504 10.6091
1 3.97975 22.8567 10.6091
1 3.98548 23.6655 9.82419
1 3.19813 22.8452 9.79608
1 4.77345 23.6504 10.6091
1 5.56715 22.8567 10.6091
1 5.5491 23.6745 9.82488
1 4.78071 22.8465 9.81095
1 6.36085 23.6504 10.6091
1 7.15455 22.8567 10.6091
1 7.13257 23.6471 9.81763
1 6.37554 22.8559 9.82179
1 7.94826 23.6504 10.6091
1 8.74196 22.8567 10.6091
1 8.7676 23.6402 9.81868
1 7.95298 22.867 9.80238
1 9.53566 23.6504 10.6091
1 10.3294 22.8567 10.6091
1 10.3427 23.6326 9.80808
1 9.53268 22.8695 9.79945
1 11.1231 23.6504 10.6091
1 11.9168 22.8567 10.6091
1 11.9269 23.6565 9.81228
1 11.1241 22.8761 9.82135
1 12.7105 23.6504 10.6091
1 13.5042 22.8567 10.6091
1 13.5323 23.6379 9.80913
1 12.7145 22.8521 9.80456
1 14.2979 23.6504 10.6091
1 15.0916 22.8567 10.6091
1 15.0998 23.6626 9.82637
1 14.2967 22.8396 9.81284
1 15.8853 23.6504 10.6091
1 16.679 22.8567 10.6091
1 16.6682 23.6532 9.81357
1 15.8825 22.852 9.82138
1 17.4727 23.6504 10.6091
1 18.2664 22.8567 10.6091
1 18.251 23.6342 9.80764
1 17.4254 22.8589 9.8026
1 19.0601 23.6504 10.6091
1 19.8538 22.8567 10.6091
1 19.858 23.6453 9.7972
1 19.0422 22.8412 9.82123
1 20.6475 23.6504 10.6091
1 21.4412 22.8567 10.6091
1 21.4522 23.6433 9.82314
1 20.6267 22.8447 9.82269
1 22.2349 23.6504 10.6091
1 23.0286 22.8567 10.6091
1 23.0597 23.6636 9.80384
1 22.2219 22.854 9.81012
1 23.8223 23.6504 10.6091
1 24.616 22.8567 10.6091
1 24.6337 23.6479 9.8268
1 23.8452 22.8599 9.83241
1 25.4097 23.6504 10.6091
1 26.2034 22.8567 10.6091
1 26.1863 23.6395 9.79978
1 25.402 22.8473 9.82512
1 26.9971 23.6504 10.6091
1 27.7908 22.8567 10.6091
1 27.7612 23.6614 9.799
1 26.9877 22.8536 9.8458
1 28.5845 23.6504 10.6091
1 29.3782 22.8567 10.6091
1 29.3193 23.638 9.80794
1 28.5536 22.852 9.84303
1 0.01125 22.063 10.6091
1 0.804951 21.2693 10.6091
1 0.830448 22.0503 9.8079
1 0.0877484 21.281 9.76984
1 1.59865 22.063 10.6091
1 2.39235 21.2693 10.6091
1 2.38452 22.0814 9.83113
1 1.62169 21.2849 9.78839
1 3.18605 22.063 10.6091
1 3.97975 21.2693 10.6091
1 3.99215 22.0757 9.83489
1 3.18823 21.2526 9.806
1 4.77345 22.063 10.6091
1 5.56715 21.2693 10.6091
1 5.56681 22.0677 9.83115
1 4.78003 21.2675 9.85132
1 6.36085 22.063 10.6091
1 7.15455 21.2693 10.6091
1 7.17402 22.0574 9.82359
1 6.34171 21.2548 9.81611
1 7.94826 22.063 10.6091
1 8.74196 21.2693 10.6091
1 8.76061 22.0675 9.81764
1 7.97621 21.254 9.77671
1 9.53566 22.063 10.6091
1 10.3294 21.2693 10.6091
1 10.3153 22.0576 9.81003
1 9.54894 21.2726 9.82578
1 11.1231 22.063 10.6091
1 11.9168 21.2693 10.6091
1 11.9119 22.0711 9.82587
1 11.1276 21.2399 9.80918
1 12.7105 22.063 10.6091
1 13.5042 21.2693 10.6091
1 13.5192 22.0717 9.79712
1 12.7176 21.2846 9.83763
1 14.2979 22.063 10.6091
1 15.0916 21.2693 10.6091
1 15.1118 22.0441 9.81575
1 14.2919 21.2778 9.81354
1 15.8853 22.063 10.6091
1 16.679 21.2693 10.6091
1 16.6507 22.0634 9.81799
1 15.8919 21.2716 9.81827
1 17.4727 22.063 10.6091
1 18.2664 21.2693 10.6091
1 18.2431 22.0623 9.83019
1 17.4811 21.2637 9.82372
1 19.0601 22.063 10.6091
1 19.8538 21.2693 10.6091
1 19.8712 22.0596 9.80971
1 19.0376 21.2602 9.82201
1 20.6475 22.063 10.6091
1 21.4412 21.2693 10.6091
1 21.4352 22.0695 9.80812
1 20.6397 21.2379 9.82319
1 22.2349 22.063 10.6091
1 23.0286 21.2693 10.6091
1 23.0321 22.0746 9.8368
1 22.2527 21.2926 9.82877
1 23.8223 22.063 10.6091
1 24.616 21.2693 10.6091
1 24.6221 22.0496 9.81842
1 23.8365 21.2925 9.83095
1 25.4097 22.063 10.6091
1 26.2034 21.2693 10.6091
1 26.206 22.0464 9.8168
1 25.4122 21.2546 9.80216
1 26.9971 22.063 10.6091
1 27.7908 21.2693 10.6091
1 27.7673 22.0536 9.80913
1 26.9757 21.246 9.82104
1 28.5845 22.063 10.6091
1 29.3782 21.2693 10.6091
1 29.3086 22.051 9.77762
1 28.5583 21.2655 9.83301
1 0.01125 20.4756 10.6091
1 0.804951 19.6819 10.6091
1 0.831205 20.4849 9.81451
1 0.0788524 19.7088 9.78781
1 1.59865 20.4756 10.6091
1 2.39235 19.6819 10.6091
1 2.39834 20.4632 9.8111
1 1.5997 19.6627 9.80629
1 3.18605 20.4756 10.6091
1 3.97975 19.6819 10.6091
1 3.99091 20.4488 9.83162
1 3.22194 19.6752 9.82701
1 4.77345 20.4756 10.6091
1 5.56715 19.6819 10.6091
1 5.57731 20.46 9.81019
1 4.7817 19.6845 9.81669
1 6.36085 20.4756 10.6091
1 7.15455 19.6819 10.6091
1 7.14401 20.4607 9.82116
1 6.37714 19.6883 9.81612
1 7.94826 20.4756 10.6091
1 8.74196 19.6819 10.6091
1 8.76584 20.4692 9.82865
1 7.94702 19.6892 9.82689
1 9.53566 20.4756 10.6091
1 10.3294 19.6819 10.6091
1 10.3365 20.4721 9.80594
1 9.53763 19.6668 9.81163
1 11.1231 20.4756 10.6091
1 11.9168 19.6819 10.6091
1 11.9205 20.4842 9.83021
1 11.1463 19.6893 9.81991
1 12.7105 20.4756 10.6091
1 13.5042 19.6819 10.6091
1 13.5188 20.4759 9.81151
1 12.6959 19.6955 9.81619
1 14.2979 20.4756 10.6091
1 15.0916 19.6819 10.6091
1 15.1051 20.4896 9.81474
1 14.2794 19.6996 9.82265
1 15.8853 20.4756 10.6091
1 16.679 19.6819 10.6091
1 16.6805 20.4745 9.80381
1 15.8788 19.6585 9.82403
1 17.4727 20.4756 10.6091
1 18.2664 19.6819 10.6091
1 18.2733 20.4515 9.81385
1 17.4703 19.6748 9.80952
1 19.0601 20.4756 10.6091
1 19.8538 19.6819 10.6091
1 19.8613 20.4844 9.82397
1 19.0682 19.6826 9.81061
1 20.6475 20.4756 10.6091
1 21.4412 19.6819 10.6091
1 21.4666 20.4697 9.82049
1 20.6327 19.7031 9.80965
1 22.2349 20.4756 10.6091
1 23.0286 19.6819 10.6091
1 23.0239 20.461 9.81172
1 22.2362 19.6965 9.80369
1 23.8223 20.4756 10.6091
1 24.616 19.6819 10.6091
1 24.6292 20.4953 9.8273
1 23.8312 19.6965 9.82065
1 25.4097 20.4756 10.6091
1 26.2034 19.6819 10.6091
1 26.1783 20.4619 9.83891
1 25.405 19.6564 9.83748
1 26.9971 20.4756 10.6091
1 27.7908 19.6819 10.6091
1 27.7668 20.4826 9.80577
1 26.97 19.6967 9.81805
1 28.5845 20.4756 10.6091
1 29.3782 19.6819 10.6091
1 29.3057 20.4818 9.79168
1 28.5628 19.6737 9.81527
1 0.01125 18.8882 10.6091
1 0.804951 18.0945 10.6091
1 0.833273 18.8928 9.7938
1 0.0749041 18.105 9.78628
1 1.59865 18.8882 10.6091
1 2.39235 18.0945 10.6091
1 2.41411 18.8842 9.81757
1 1.63167 18.1142 9.81488
1 3.18605 18.8882 10.6091
1 3.97975 18.0945 10.6091
1 3.99578 18.8868 9.83329
1 3.20201 18.1126 9.81569
1 4.77345 18.8882 10.6091
1 5.56715 18.0945 10.6091
1 5.57343 18.8913 9.81076
1 4.78623 18.0955 9.81049
1 6.36085 18.8882 10.6091
1 7.15455 18.0945 10.6091
1 7.16563 18.9012 9.81423
1 6.37387 18.1159 9.81074
1 7.94826 18.8882 10.6091
1 8.74196 18.0945 10.6091
1 8.73109 18.891 9.82762
1 7.96029 18.0892 9.80693
1 9.53566 18.8882 10.6091
1 10.3294 18.0945 10.6091
1 10.3389 18.8901 9.82943
1 9.56142 18.1183 9.81307
1 11.1231 18.8882 10.6091
1 11.9168 18.0945 10.6091
1 11.932 18.8682 9.83031
1 11.1407 18.102 9.81647
1 12.7105 18.8882 10.6091
1 13.5042 18.0945 10.6091
1 13.507 18.8976 9.81038
1 12.7063 18.0892 9.81394
1 14.2979 18.8882 10.6091
1 15.0916 18.0945 10.6091
1 15.1056 18.8849 9.79463
1 14.2853 18.0825 9.80995
1 15.8853 18.8882 10.6091
1 16.679 18.0945 10.6091
1 16.6989 18.875 9.81361
1 15.8915 18.0987 9.77719
1 17.4727 18.8882 10.6091
1 18.2664 18.0945 10.6091
1 18.2761 18.8844 9.79155
1 17.467 18.117 9.79809
1 19.0601 18.8882 10.6091
1 19.8538 18.0945 10.6091
1 19.8512 18.8908 9.83237
1 19.066 18.0829 9.81941
1 20.6475 18.8882 10.6091
1 21.4412 18.0945 10.6091
1 21.4283 18.8945 9.80982
1 20.6525 18.0846 9.82344
1 22.2349 18.8882 10.6091
1 23.0286 18.0945 10.6091
1 23.0357 18.8748 9.81643
1 22.2125 18.0869 9.81672
1 23.8223 18.8882 10.6091
1 24.616 18.0945 10.6091
1 24.6382 18.8911 9.78906
1 23.8292 18.0901 9.81813
1 25.4097 18.8882 10.6091
1 26.2034 18.0945 10.6091
1 26.2008 18.9051 9.82343
1 25.4111 18.0906 9.80579
1 26.9971 18.8882 10.6091
1 27.7908 18.0945 10.6091
1 27.7775 18.883 9.82039
1 26.9987 18.1082 9.81277
1 28.5845 18.8882 10.6091
1 29.3782 18.0945 10.6091
1 29.3472 18.8814 9.78619
1 28.5636 18.0907 9.84459
1 0.01125 17.3008 10.6091
1 0.804951 16.5071 10.6091
1 0.87859 17.3335 9.80831
1 0.0955274 16.5235 9.79871
1 1.59865 17.3008 10.6091
1 2.39235 16.5071 10.6091
1 2.39104 17.3047 9.82226
1 1.6095 16.4901 9.79542
1 3.18605 17.3008 10.6091
1 3.97975 16.5071 10.6091
1 3.97326 17.3116 9.83371
1 3.18053 16.5203 9.82561
1 4.77345 17.3008 10.6091
1 5.56715 16.5071 10.6091
1 5.59924 17.3303 9.81801
1 4.77014 16.5286 9.82363
1 6.36085 17.3008 10.6091
1 7.15455 16.5071 10.6091
1 7.14519 17.3215 9.8017
1 6.36583 16.5048 9.81718
1 7.94826 17.3008 10.6091
1 8.74196 16.5071 10.6091
1 8.74819 17.3072 9.82048
1 7.95742 16.5279 9.82751
1 9.53566 17.3008 10.6091
1 10.3294 16.5071 10.6091
1 10.3333 17.3251 9.82023
1 9.54229 16.5369 9.81597
1 11.1231 17.3008 10.6091
1 11.9168 16.5071 10.6091
1 11.924 17.2973 9.79755
1 11.1218 16.5217 9.80506
1 12.7105 17.3008 10.6091
1 13.5042 16.5071 10.6091
1 13.4983 17.3016 9.82673
1 12.726 16.4914 9.82438
1 14.2979 17.3008 10.6091
1 15.0916 16.5071 10.6091
1 15.1033 17.3409 9.82439
1 14.3075 16.51 9.82334
1 15.8853 17.3008 10.6091
1 16.679 16.5071 10.6091
1 16.6683 17.2859 9.82308
1 15.8815 16.5098 9.79534
1 17.4727 17.3008 10.6091
1 18.2664 16.5071 10.6091
1 18.26 17.2789 9.80716
1 17.4557 16.4873 9.80875
1 19.0601 17.3008 10.6091
1 19.8538 16.5071 10.6091
1 19.8346 17.3092 9.80337
1 19.0724 16.5016 9.79892
1 20.6475 17.3008 10.6091
1 21.4412 16.5071 10.6091
1 21.4515 17.2961 9.81673
1 20.6544 16.5371 9.82106
1 22.2349 17.3008 10.6091
1 23.0286 16.5071 10.6091
1 23.0046 17.2817 9.81213
1 22.2387 16.5042 9.80047
1 23.8223 17.3008 10.6091
1 24.616 16.5071 10.6091
1 24.6332 17.3022 9.82794
1 23.8356 16.5266 9.80884
1 25.4097 17.3008 10.6091
1 26.2034 16.5071 10.6091
1 26.1995 17.2814 9.82984
1 25.4166 16.479 9.82065
1 26.9971 17.3008 10.6091
1 27.7908 16.5071 10.6091
1 27.7779 17.3088 9.82511
1 27.0076 16.5059 9.81301
1 28.5845 17.3008 10.6091
1 29.3782 16.5071 10.6091
1 29.3319 17.287 9.78993
1 28.5523 16.4995 9.8281
1 0.01125 15.7134 10.6091
1 0.804951 14.9197 10.6091
1 0.82937 15.747 9.80388
1 0.0954708 14.9308 9.77181
1 1.59865 15.7134 10.6091
1 2.39235 14.9197 10.6091
1 2.41808 15.707 9.83591
1 1.6273 14.9283 9.81689
1 3.18605 15.7134 10.6091
1 3.97975 14.9197 10.6091
1 3.9857 15.7301 9.80606
1 3.18983 14.9148 9.82368
1 4.77345 15.7134 10.6091
1 5.56715 14.9197 10.6091
1 5.56173 15.7003 9.78985
1 4.75815 14.9136 9.79927
1 6.36085 15.7134 10.6091
1 7.15455 14.9197 10.6091
1 7.13461 15.7218 9.81028
1 6.35283 14.8981 9.81991
1 7.94826 15.7134 10.6091
1 8.74196 14.9197 10.6091
1 8.7246 15.7167 9.8023
1 7.933 14.9133 9.80479
1 9.53566 15.7134 10.6091
1 10.3294 14.9197 10.6091
1 10.3063 15.7154 9.82111
1 9.55972 14.9027 9.82354
1 11.1231 15.7134 10.6091
1 11.9168 14.9197 10.6091
1 11.9114 15.7087 9.81849
1 11.1172 14.9274 9.81569
1 12.7105 15.7134 10.6091
1 13.5042 14.9197 10.6091
1 13.4994 15.7034 9.80756
1 12.724 14.881 9.82612
1 14.2979 15.7134 10.6091
1 15.0916 14.9197 10.6091
1 15.0932 15.6936 9.81921
1 14.2778 14.925 9.8158
1 15.8853 15.7134 10.6091
1 16.679 14.9197 10.6091
1 16.6907 15.7293 9.81739
1 15.8855 14.9491 9.84438
1 17.4727 15.7134 10.6091
1 18.2664 14.9197 10.6091
1 18.3018 15.7252 9.80182
1 17.4776 14.9314 9.8166
1 19.0601 15.7134 10.6091
1 19.8538 14.9197 10.6091
1 19.8552 15.723 9.81528
1 19.071 14.9124 9.82953
1 20.6475 15.7134 10.6091
1 21.4412 14.9197 10.6091
1 21.4508 15.7147 9.80049
1 20.6364 14.9214 9.81452
1 22.2349 15.7134 10.6091
1 23.0286 14.9197 10.6091
1 23.0262 15.7122 9.8121
1 22.2334 14.9092 9.81687
1 23.8223 15.7134 10.6091
1 24.616 14.9197 10.6091
1 24.6068 15.7069 9.82952
1 23.7944 14.9198 9.81532
1 25.4097 15.7134 10.6091
1 26.2034 14.9197 10.6091
1 26.1751 15.7042 9.81581
1 25.4237 14.8982 9.80935
1 26.9971 15.7134 10.6091
1 27.7908 14.9197 10.6091
1 27.7894 15.6788 9.82101
1 26.9881 14.9077 9.81425
1 28.5845 15.7134 10.6091
1 29.3782 14.9197 10.6091
1 29.3274 15.716 9.77848
1 28.569 14.9216 9.80812
1 0.01125 14.126 10.6091
1 0.804951 13.3323 10.6091
1 0.856994 14.1232 9.79727
1 0.0801416 13.3413 9.80094
1 1.59865 14.126 10.6091
1 2.39235 13.3323 10.6091
1 2.41099 14.121 9.8061
1 1.62981 13.3549 9.81059
1 3.18605 14.126 10.6091
1 3.97975 13.3323 10.6091
1 3.9645 14.1233 9.81008
1 3.18584 13.3618 9.80133
1 4.77345 14.126 10.6091
1 5.56715 13.3323 10.6091
1 5.57316 14.1209 9.80092
1 4.7821 13.3345 9.80868
1 6.36085 14.126 10.6091
1 7.15455 13.3323 10.6091
1 7.13599 14.1048 9.79606
1 6.3369 13.3482 9.80288
1 7.94826 14.126 10.6091
1 8.74196 13.3323 10.6091
1 8.7344 14.1167 9.83153
1 7.9321 13.328 9.81995
1 9.53566 14.126 10.6091
1 10.3294 13.3323 10.6091
1 10.341 14.1166 9.79966
1 9.56233 13.3332 9.81874
1 11.1231 14.126 10.6091
1 11.9168 13.3323 10.6091
1 11.9054 14.1359 9.80095
1 11.1194 13.3137 9.82638
1 12.7105 14.126 10.6091
1 13.5042 13.3323 10.6091
1 13.5058 14.1323 9.82616
1 12.708 13.3434 9.83028
1 14.2979 14.126 10.6091
1 15.0916 13.3323 10.6091
1 15.1142 14.13 9.79904
1 14.3294 13.3482 9.81375
1 15.8853 14.126 10.6091
1 16.679 13.3323 10.6091
1 16.6662 14.1312 9.82272
1 15.882 13.3248 9.8383
1 17.4727 14.126 10.6091
1 18.2664 13.3323 10.6091
1 18.2522 14.1396 9.81412
1 17.4485 13.3476 9.82036
1 19.0601 14.126 10.6091
1 19.8538 13.3323 10.6091
1 19.8444 14.111 9.82119
1 19.0557 13.319 9.80207
1 20.6475 14.126 10.6091
1 21.4412 13.3323 10.6091
1 21.4389 14.1481 9.8113
1 20.6598 13.3321 9.81451
1 22.2349 14.126 10.6091
1 23.0286 13.3323 10.6091
1 23.0313 14.1384 9.82192
1 22.2386 13.3498 9.79717
1 23.8223 14.126 10.6091
1 24.616 13.3323 10.6091
1 24.6393 14.1237 9.82183
1 23.8129 13.3551 9.79862
1 25.4097 14.126 10.6091
1 26.2034 13.3323 10.6091
1 26.2028 14.122 9.80161
1 25.3818 13.3213 9.82393
1 26.9971 14.126 10.6091
1 27.7908 13.3323 10.6091
1 27.7732 14.1187 9.81645
1 26.9884 13.3111 9.8125
1 28.5845 14.126 10.6091
1 29.3782 13.3323 10.6091
1 29.3123 14.1393 9.79834
1 28.5516 13.3306 9.8064
1 0.01125 12.5386 10.6091
1 0.804951 11.7449 10.6091
1 0.847575 12.524 9.80787
1 0.069493 11.7544 9.78881
1 1.59865 12.5386 10.6091
1 2.39235 11.7449 10.6091
1 2.42526 12.5384 9.79023
1 1.60605 11.7445 9.81693
1 3.18605 12.5386 10.6091
1 3.97975 11.7449 10.6091
1 3.97363 12.5429 9.80783
1 3.21028 11.7295 9.82168
1 4.77345 12.5386 10.6091
1 5.56715 11.7449 10.6091
1 5.55967 12.526 9.82362
1 4.77254 11.7387 9.81903
1 6.36085 12.5386 10.6091
1 7.15455 11.7449 10.6091
1 7.16766 12.5316 9.82083
1 6.34524 11.7479 9.80223
1 7.94826 12.5386 10.6091
1 8.74196 11.7449 10.6091
1 8.7664 12.5345 9.81388
1 7.96169 11.7325 9.81424
1 9.53566 12.5386 10.6091
1 10.3294 11.7449 10.6091
1 10.2968 12.5273 9.81082
1 9.54361 11.7402 9.82929
1 11.1231 12.5386 10.6091
1 11.9168 11.7449 10.6091
1 11.9365 12.5252 9.82684
1 11.1109 11.7399 9.8268
1 12.7105 12.5386 10.6091
1 13.5042 11.7449 10.6091
1 13.4974 12.5432 9.82002
1 12.7284 11.732 9.81427
1 14.2979 12.5386 10.6091
1 15.0916 11.7449 10.6091
1 15.0869 12.5367 9.83743
1 14.2967 11.7325 9.83265
1 15.8853 12.5386 10.6091
1 16.679 11.7449 10.6091
1 16.6848 12.5334 9.80819
1 15.8784 11.723 9.82163
1 17.4727 12.5386 10.6091
1 18.2664 11.7449 10.6091
1 18.2638 12.5245 9.80606
1 17.4753 11.7421 9.81184
1 19.0601 12.5386 10.6091
1 19.8538 11.7449 10.6091
1 19.8547 12.5294 9.79324
1 19.0647 11.7404 9.79681
1 20.6475 12.5386 10.6091
1 21.4412 11.7449 10.6091
1 21.4593 12.5155 9.81563
1 20.66 11.7266 9.82227
1 22.2349 12.5386 10.6091
1 23.0286 11.7449 10.6091
1 23.0054 12.5515 9.81736
1 22.2549 11.7529 9.80351
1 23.8223 12.5386 10.6091
1 24.616 11.7449 10.6091
1 24.5728 12.5539 9.83422
1 23.8125 11.7699 9.81011
1 25.4097 12.5386 10.6091
1 26.2034 11.7449 10.6091
1 26.1757 12.5443 9.80588
1 25.3944 11.7456 9.80225
1 26.9971 12.5386 10.6091
1 27.7908 11.7449 10.6091
1 27.7621 12.5243 9.78999
1 26.988 11.7708 9.81563
1 28.5845 12.5386 10.6091
1 29.3782 11.7449 10.6091
1 29.3289 12.5407 9.79337
1 28.5442 11.7777 9.81833
1 0.01125 10.9512 10.6091
1 0.804951 10.1575 10.6091
1 0.814931 10.9196 9.81481
1 0.0469111 10.1601 9.79397
1 1.59865 10.9512 10.6091
1 2.39235 10.1575 10.6091
1 2.38621 10.94 9.82331
1 1.62594 10.1404 9.82032
1 3.18605 10.9512 10.6091
1 3.97975 10.1575 10.6091
1 3.98842 10.9127 9.82008
1 3.17601 10.1516 9.81746
1 4.77345 10.9512 10.6091
1 5.56715 10.1575 10.6091
1 5.57561 10.9429 9.81268
1 4.79637 10.1617 9.81853
1 6.36085 10.9512 10.6091
1 7.15455 10.1575 10.6091
1 7.15234 10.9263 9.83519
1 6.3349 10.1477 9.80648
1 7.94826 10.9512 10.6091
1 8.74196 10.1575 10.6091
1 8.72283 10.9433 9.81884
1 7.94551 10.1385 9.80851
1 9.53566 10.9512 10.6091
1 10.3294 10.1575 10.6091
1 10.3235 10.9585 9.81995
1 9.54647 10.1765 9.80577
1 11.1231 10.9512 10.6091
1 11.9168 10.1575 10.6091
1 11.9062 10.9406 9.79011
1 11.1131 10.1299 9.79822
1 12.7105 10.9512 10.6091
1 13.5042 10.1575 10.6091
1 13.4942 10.9462 9.83042
1 12.6932 10.1685 9.81284
1 14.2979 10.9512 10.6091
1 15.0916 10.1575 10.6091
1 15.0769 10.936 9.82164
1 14.2734 10.1429 9.83543
1 15.8853 10.9512 10.6091
1 16.679 10.1575 10.6091
1 16.6937 10.9598 9.81764
1 15.8978 10.143 9.79765
1 17.4727 10.9512 10.6091
1 18.2664 10.1575 10.6091
1 18.2482 10.947 9.81644
1 17.4816 10.1671 9.79609
1 19.0601 10.9512 10.6091
1 19.8538 10.1575 10.6091
1 19.8487 10.9565 9.81422
1 19.0494 10.1674 9.80475
1 20.6475 10.9512 10.6091
1 21.4412 10.1575 10.6091
1 21.4733 10.9593 9.82746
1 20.6562 10.1688 9.80792
1 22.2349 10.9512 10.6091
1 23.0286 10.1575 10.6091
1 23.0352 10.9578 9.80965
1 22.2473 10.1845 9.80699
1 23.8223 10.9512 10.6091
1 24.616 10.1575 10.6091
1 24.6124 10.9541 9.8506
1 23.8214 10.1722 9.82792
1 25.4097 10.9512 10.6091
1 26.2034 10.1575 10.6091
1 26.2136 10.9757 9.85977
1 25.3974 10.1628 9.80993
1 26.9971 10.9512 10.6091
1 27.7908 10.1575 10.6091
1 27.7641 10.9551 9.80164
1 26.9912 10.1603 9.80304
1 28.5845 10.9512 10.6091
1 29.3782 10.1575 10.6091
1 29.3108 10.9487 9.79512
1 28.5479 10.1416 9.80614
1 0.01125 9.36379 10.6091
1 0.804951 8.57009 10.6091
1 0.825716 9.37637 9.78302
1 0.0853967 8.56418 9.78039
1 1.59865 9.36379 10.6091
1 2.39235 8.57009 10.6091
1 2.39649 9.36029 9.78349
1 1.59635 8.57027 9.83238
1 3.18605 9.36379 10.6091
1 3.97975 8.57009 10.6091
1 3.96585 9.37664 9.82259
1 3.1966 8.57354 9.81022
1 4.77345 9.36379 10.6091
1 5.56715 8.57009 10.6091
1 5.55111 9.37926 9.80986
1 4.78059 8.55721 9.82684
1 6.36085 9.36379 10.6091
1 7.15455 8.57009 10.6091
1 7.14959 9.36123 9.81194
1 6.3617 8.56974 9.81085
1 7.94826 9.36379 10.6091
1 8.74196 8.57009 10.6091
1 8.73742 9.35294 9.83493
1 7.92265 8.57517 9.80701
1 9.53566 9.36379 10.6091
1 10.3294 8.57009 10.6091
1 10.3125 9.3486 9.80276
1 9.521 8.55979 9.80455
1 11.1231 9.36379 10.6091
1 11.9168 8.57009 10.6091
1 11.8967 9.34824 9.80564
1 11.0996 8.56794 9.81276
1 12.7105 9.36379 10.6091
1 13.5042 8.57009 10.6091
1 13.4966 9.35607 9.85213
1 12.7009 8.56602 9.8362
1 14.2979 9.36379 10.6091
1 15.0916 8.57009 10.6091
1 15.1088 9.31995 9.80222
1 14.289 8.57376 9.82519
1 15.8853 9.36379 10.6091
1 16.679 8.57009 10.6091
1 16.6797 9.36007 9.8101
1 15.8899 8.57614 9.82883
1 17.4727 9.36379 10.6091
1 18.2664 8.57009 10.6091
1 18.3008 9.367 9.81789
1 17.4808 8.59133 9.7934
1 19.0601 9.36379 10.6091
1 19.8538 8.57009 10.6091
1 19.8602 9.36724 9.81964
1 19.0615 8.55896 9.81288
1 20.6475 9.36379 10.6091
1 21.4412 8.57009 10.6091
1 21.4496 9.37525 9.82929
1 20.6531 8.57407 9.82342
1 22.2349 9.36379 10.6091
1 23.0286 8.57009 10.6091
1 23.0353 9.37096 9.82278
1 22.2435 8.55715 9.84415
1 23.8223 9.36379 10.6091
1 24.616 8.57009 10.6091
1 24.5954 9.37078 9.8343
1 23.8188 8.56973 9.82082
1 25.4097 9.36379 10.6091
1 26.2034 8.57009 10.6091
1 26.1875 9.36626 9.82918
1 25.3983 8.57577 9.82266
1 26.9971 9.36379 10.6091
1 27.7908 8.57009 10.6091
1 27.7724 9.37967 9.81033
1 26.9803 8.61047 9.82818
1 28.5845 9.36379 10.6091
1 29.3782 8.57009 10.6091
1 29.3231 9.33638 9.79433
1 28.5537 8.57538 9.83983
1 0.01125 7.77639 10.6091
1 0.804951 6.98268 10.6091
1 0.846485 7.76614 9.7911
1 0.0918554 6.99532 9.79651
1 1.59865 7.77639 10.6091
1 2.39235 6.98268 10.6091
1 2.41331 7.76888 9.82703
1 1.61424 7.0091 9.81438
1 3.18605 7.77639 10.6091
1 3.97975 6.98268 10.6091
1 3.99601 7.77683 9.8059
1 3.18192 6.9971 9.79647
1 4.77345 7.77639 10.6091
1 5.56715 6.98268 10.6091
1 5.58245 7.76128 9.83281
1 4.78737 6.98197 9.80535
1 6.36085 7.77639 10.6091
1 7.15455 6.98268 10.6091
1 7.16271 7.77773 9.80733
1 6.34509 6.97944 9.81039
1 7.94826 7.77639 10.6091
1 8.74196 6.98268 10.6091
1 8.73184 7.77675 9.81333
1 7.95135 6.9858 9.81236
1 9.53566 7.77639 10.6091
1 10.3294 6.98268 10.6091
1 10.3287 7.79165 9.8271
1 9.54378 6.98017 9.82009
1 11.1231 7.77639 10.6091
1 11.9168 6.98268 10.6091
1 11.9103 7.77788 9.83483
1 11.1139 6.98424 9.79486
1 12.7105 7.77639 10.6091
1 13.5042 6.98268 10.6091
1 13.487 7.77986 9.82241
1 12.6792 6.95239 9.80482
1 14.2979 7.77639 10.6091
1 15.0916 6.98268 10.6091
1 15.1006 7.7632 9.79744
1 14.3054 6.97898 9.82893
1 15.8853 7.77639 10.6091
1 16.679 6.98268 10.6091
1 16.6742 7.77804 9.79959
1 15.893 6.99948 9.81186
1 17.4727 7.77639 10.6091
1 18.2664 6.98268 10.6091
1 18.2923 7.78189 9.78914
1 17.4652 6.99818 9.81394
1 19.0601 7.77639 10.6091
1 19.8538 6.98268 10.6091
1 19.8504 7.79314 9.82162
1 19.0648 7.00217 9.81002
1 20.6475 7.77639 10.6091
1 21.4412 6.98268 10.6091
1 21.4444 7.76131 9.83334
1 20.6379 7.00737 9.83196
1 22.2349 7.77639 10.6091
1 23.0286 6.98268 10.6091
1 23.0328 7.78649 9.81607
1 22.2463 6.97189 9.83275
1 23.8223 7.77639 10.6091
1 24.616 6.98268 10.6091
1 24.6223 7.77212 9.82276
1 23.852 6.97946 9.82549
1 25.4097 7.77639 10.6091
1 26.2034 6.98268 10.6091
1 26.1959 7.78658 9.83697
1 25.4223 6.96175 9.81475
1 26.9971 7.77639 10.6091
1 27.7908 6.98268 10.6091
1 27.7617 7.78142 9.81544
1 26.9787 6.98247 9.82068
1 28.5845 7.77639 10.6091
1 29.3782 6.98268 10.6091
1 29.3183 7.77855 9.79279
1 28.5551 6.98239 9.8068
1 0.01125 6.18898 10.6091
1 0.804951 5.39528 10.6091
1 0.847333 6.18862 9.80383
1 0.0816687 5.39384 9.79233
1 1.59865 6.18898 10.6091
1 2.39235 5.39528 10.6091
1 2.41216 6.16699 9.81782
1 1.59338 5.40925 9.81532
1 3.18605 6.18898 10.6091
1 3.97975 5.39528 10.6091
1 3.99619 6.2052 9.8259
1 3.19162 5.39362 9.83566
1 4.77345 6.18898 10.6091
1 5.56715 5.39528 10.6091
1 5.57369 6.18453 9.78663
1 4.76913 5.40364 9.83943
1 6.36085 6.18898 10.6091