9376
Atoms. Timestep: 4000000
1 30 3.55271e-15 10.673
1 0.793701 29.2063 10.673
1 0.816762 29.9447 9.82275
1 0.0630539 29.1994 9.83338
1 1.5874 3.55271e-15 10.673
1 2.3811 29.2063 10.673
1 2.42045 29.9241 9.87294
1 1.59253 29.2238 9.87692
1 3.1748 3.55271e-15 10.673
1 3.9685 29.2063 10.673
1 3.97504 29.9127 9.82608
1 3.1816 29.1565 9.86908
1 4.7622 3.55271e-15 10.673
1 5.5559 29.2063 10.673
1 5.53569 29.9444 9.83998
1 4.78312 29.1883 9.87982
1 6.3496 3.55271e-15 10.673
1 7.1433 29.2063 10.673
1 7.14209 29.9387 9.88564
1 6.35361 29.1857 9.88806
1 7.93701 3.55271e-15 10.673
1 8.73071 29.2063 10.673
1 8.70954 29.9295 9.84169
1 7.92253 29.1517 9.89685
1 9.52441 3.55271e-15 10.673
1 10.3181 29.2063 10.673
1 10.3302 29.9044 9.84455
1 9.52399 29.1711 9.8848
1 11.1118 3.55271e-15 10.673
1 11.9055 29.2063 10.673
1 11.9126 29.9521 9.85153
1 11.1226 29.1953 9.86523
1 12.6992 3.55271e-15 10.673
1 13.4929 29.2063 10.673
1 13.4962 29.9067 9.83181
1 12.6907 29.1983 9.87243
1 14.2866 3.55271e-15 10.673
1 15.0803 29.2063 10.673
1 15.1104 29.9218 9.85851
1 14.2904 29.183 9.88507
1 15.874 3.55271e-15 10.673
1 16.6677 29.2063 10.673
1 16.6963 29.9104 9.83305
1 15.8782 29.165 9.87454
1 17.4614 3.55271e-15 10.673
1 18.2551 29.2063 10.673
1 18.2412 29.9174 9.84168
1 17.4772 29.1405 9.88207
1 19.0488 3.55271e-15 10.673
1 19.8425 29.2063 10.673
1 19.8601 29.9404 9.85644
1 19.0396 29.1737 9.87063
1 20.6362 3.55271e-15 10.673
1 21.4299 29.2063 10.673
1 21.4385 29.956 9.82845
1 20.657 29.1658 9.87557
1 22.2236 3.55271e-15 10.673
1 23.0173 29.2063 10.673
1 23.0223 29.8946 9.85186
1 22.2163 29.1599 9.86319
1 23.811 3.55271e-15 10.673
1 24.6047 29.2063 10.673
1 24.6062 29.933 9.85547
1 23.824 29.1798 9.8455
1 25.3984 3.55271e-15 10.673
1 26.1921 29.2063 10.673
1 26.1641 29.9514 9.84787
1 25.39 29.1816 9.85589
1 26.9858 3.55271e-15 10.673
1 27.7795 29.2063 10.673
1 27.7577 29.9173 9.81952
1 26.9384 29.1701 9.88871
1 28.5732 3.55271e-15 10.673
1 29.3669 29.2063 10.673
1 29.2992 29.947 9.80026
1 28.5449 29.1703 9.86297
1 30 28.4126 10.673
1 0.793701 27.6189 10.673
1 0.819933 28.4227 9.86449
1 0.0726056 27.6062 9.82847
1 1.5874 28.4126 10.673
1 2.3811 27.6189 10.673
1 2.40857 28.3903 9.88378
1 1.57655 27.619 9.87727
1 3.1748 28.4126 10.673
1 3.9685 27.6189 10.673
1 3.96404 28.3772 9.88958
1 3.1795 27.6065 9.88941
1 4.7622 28.4126 10.673
1 5.5559 27.6189 10.673
1 5.55952 28.3979 9.905
1 4.75607 27.5853 9.89114
1 6.3496 28.4126 10.673
1 7.1433 27.6189 10.673
1 7.119 28.3869 9.87821
1 6.34925 27.6065 9.84506
1 7.93701 28.4126 10.673
1 8.73071 27.6189 10.673
1 8.69872 28.3971 9.88574
1 7.93882 27.5924 9.89051
1 9.52441 28.4126 10.673
1 10.3181 27.6189 10.673
1 10.3309 28.409 9.86554
1 9.53826 27.5903 9.8683
1 11.1118 28.4126 10.673
1 11.9055 27.6189 10.673
1 11.9079 28.3739 9.88578
1 11.0978 27.5919 9.88462
1 12.6992 28.4126 10.673
1 13.4929 27.6189 10.673
1 13.49 28.4077 9.86284
1 12.7003 27.5692 9.89386
1 14.2866 28.4126 10.673
1 15.0803 27.6189 10.673
1 15.0793 28.3912 9.8936
1 14.302 27.5998 9.857
1 15.874 28.4126 10.673
1 16.6677 27.6189 10.673
1 16.6698 28.3955 9.89171
1 15.8647 27.6153 9.87715
1 17.4614 28.4126 10.673
1 18.2551 27.6189 10.673
1 18.2586 28.3814 9.85921
1 17.4513 27.594 9.86933
1 19.0488 28.4126 10.673
1 19.8425 27.6189 10.673
1 19.8257 28.4072 9.85477
1 19.0568 27.5871 9.84118
1 20.6362 28.4126 10.673
1 21.4299 27.6189 10.673
1 21.4248 28.3715 9.86641
1 20.6362 27.5777 9.86576
1 22.2236 28.4126 10.673
1 23.0173 27.6189 10.673
1 23.0388 28.4018 9.86813
1 22.2277 27.6109 9.86255
1 23.811 28.4126 10.673
1 24.6047 27.6189 10.673
1 24.6244 28.4121 9.89867
1 23.8003 27.607 9.89058
1 25.3984 28.4126 10.673
1 26.1921 27.6189 10.673
1 26.1712 28.389 9.88733
1 25.3962 27.617 9.87928
1 26.9858 28.4126 10.673
1 27.7795 27.6189 10.673
1 27.7575 28.405 9.87757
1 26.9733 27.6279 9.87678
1 28.5732 28.4126 10.673
1 29.3669 27.6189 10.673
1 29.294 28.4194 9.83156
1 28.5282 27.6328 9.8726
1 30 26.8252 10.673
1 0.793701 26.0315 10.673
1 0.818122 26.8345 9.8871
1 0.043344 26.0455 9.81786
1 1.5874 26.8252 10.673
1 2.3811 26.0315 10.673
1 2.3654 26.837 9.8743
1 1.60496 26.0396 9.85701
1 3.1748 26.8252 10.673
1 3.9685 26.0315 10.673
1 3.96567 26.8113 9.87894
1 3.15794 26.0531 9.86289
1 4.7622 26.8252 10.673
1 5.5559 26.0315 10.673
1 5.5574 26.8114 9.8764
1 4.7598 26.0239 9.88428
1 6.3496 26.8252 10.673
1 7.1433 26.0315 10.673
1 7.12882 26.8115 9.89207
1 6.35243 26.0354 9.89383
1 7.93701 26.8252 10.673
1 8.73071 26.0315 10.673
1 8.7461 26.8253 9.88956
1 7.92582 26.0401 9.89633
1 9.52441 26.8252 10.673
1 10.3181 26.0315 10.673
1 10.2994 26.8088 9.88852
1 9.50247 26.0208 9.88327
1 11.1118 26.8252 10.673
1 11.9055 26.0315 10.673
1 11.892 26.8069 9.89709
1 11.1026 26.0243 9.86736
1 12.6992 26.8252 10.673
1 13.4929 26.0315 10.673
1 13.5124 26.8053 9.89724
1 12.6894 25.9987 9.88058
1 14.2866 26.8252 10.673
1 15.0803 26.0315 10.673
1 15.0785 26.8251 9.84962
1 14.2747 26.0345 9.86685
1 15.874 26.8252 10.673
1 16.6677 26.0315 10.673
1 16.6823 26.8067 9.87549
1 15.8758 26.0305 9.87506
1 17.4614 26.8252 10.673
1 18.2551 26.0315 10.673
1 18.2689 26.8166 9.86556
1 17.472 25.9992 9.87154
1 19.0488 26.8252 10.673
1 19.8425 26.0315 10.673
1 19.8146 26.7994 9.86913
1 19.0623 25.9965 9.86912
1 20.6362 26.8252 10.673
1 21.4299 26.0315 10.673
1 21.4453 26.8139 9.85619
1 20.6365 26.0122 9.88468
1 22.2236 26.8252 10.673
1 23.0173 26.0315 10.673
1 23.0171 26.8156 9.87676
1 22.216 26.0226 9.88707
1 23.811 26.8252 10.673
1 24.6047 26.0315 10.673
1 24.6065 26.8398 9.87076
1 23.8212 26.0477 9.8426
1 25.3984 26.8252 10.673
1 26.1921 26.0315 10.673
1 26.2029 26.8095 9.88008
1 25.3804 26.0455 9.90215
1 26.9858 26.8252 10.673
1 27.7795 26.0315 10.673
1 27.7725 26.8034 9.87321
1 26.9925 26.0213 9.89577
1 28.5732 26.8252 10.673
1 29.3669 26.0315 10.673
1 29.2794 26.8259 9.84116
1 28.5471 26.0287 9.8763
1 30 25.2378 10.673
1 0.793701 24.4441 10.673
1 0.793961 25.2575 9.88737
1 0.0775285 24.42 9.85928
1 1.5874 25.2378 10.673
1 2.3811 24.4441 10.673
1 2.36326 25.2249 9.86404
1 1.59647 24.4402 9.85333
1 3.1748 25.2378 10.673
1 3.9685 24.4441 10.673
1 3.95954 25.263 9.90002
1 3.16893 24.45 9.86801
1 4.7622 25.2378 10.673
1 5.5559 24.4441 10.673
1 5.56662 25.2331 9.88351
1 4.76338 24.4419 9.88383
1 6.3496 25.2378 10.673
1 7.1433 24.4441 10.673
1 7.13964 25.2428 9.88384
1 6.35076 24.4517 9.8705
1 7.93701 25.2378 10.673
1 8.73071 24.4441 10.673
1 8.69824 25.2447 9.89654
1 7.92611 24.4507 9.87603
1 9.52441 25.2378 10.673
1 10.3181 24.4441 10.673
1 10.3139 25.2328 9.87728
1 9.49732 24.4301 9.88806
1 11.1118 25.2378 10.673
1 11.9055 24.4441 10.673
1 11.8867 25.2363 9.89606
1 11.0999 24.4345 9.87614
1 12.6992 25.2378 10.673
1 13.4929 24.4441 10.673
1 13.5102 25.2286 9.88108
1 12.699 24.4404 9.85695
1 14.2866 25.2378 10.673
1 15.0803 24.4441 10.673
1 15.0585 25.2377 9.8785
1 14.2901 24.4363 9.86065
1 15.874 25.2378 10.673
1 16.6677 24.4441 10.673
1 16.673 25.2389 9.86257
1 15.8685 24.4549 9.88979
1 17.4614 25.2378 10.673
1 18.2551 24.4441 10.673
1 18.2454 25.2105 9.85349
1 17.4688 24.4278 9.87749
1 19.0488 25.2378 10.673
1 19.8425 24.4441 10.673
1 19.8394 25.2259 9.85691
1 19.0621 24.4359 9.84849
1 20.6362 25.2378 10.673
1 21.4299 24.4441 10.673
1 21.4239 25.2311 9.88639
1 20.64 24.4252 9.88986
1 22.2236 25.2378 10.673
1 23.0173 24.4441 10.673
1 23.0331 25.2342 9.88474
1 22.21 24.4404 9.88126
1 23.811 25.2378 10.673
1 24.6047 24.4441 10.673
1 24.5977 25.2302 9.8853
1 23.8248 24.4116 9.88433
1 25.3984 25.2378 10.673
1 26.1921 24.4441 10.673
1 26.1983 25.2597 9.9168
1 25.4044 24.4329 9.87378
1 26.9858 25.2378 10.673
1 27.7795 24.4441 10.673
1 27.7832 25.2163 9.87752
1 26.9621 24.4579 9.91689
1 28.5732 25.2378 10.673
1 29.3669 24.4441 10.673
1 29.2862 25.2111 9.83067
1 28.5478 24.4242 9.87605
1 30 23.6504 10.673
1 0.793701 22.8567 10.673
1 0.841787 23.6439 9.8735
1 0.0669548 22.8328 9.83948
1 1.5874 23.6504 10.673
1 2.3811 22.8567 10.673
1 2.38778 23.6506 9.88516
1 1.60182 22.8684 9.87113
1 3.1748 23.6504 10.673
1 3.9685 22.8567 10.673
1 3.97084 23.67 9.85727
1 3.17519 22.8479 9.90321
1 4.7622 23.6504 10.673
1 5.5559 22.8567 10.673
1 5.56 23.6591 9.87402
1 4.76235 22.8441 9.88263
1 6.3496 23.6504 10.673
1 7.1433 22.8567 10.673
1 7.15134 23.643 9.86629
1 6.3437 22.8441 9.88524
1 7.93701 23.6504 10.673
1 8.73071 22.8567 10.673
1 8.71468 23.6374 9.86513
1 7.96245 22.8605 9.8896
1 9.52441 23.6504 10.673
1 10.3181 22.8567 10.673
1 10.3111 23.6585 9.86679
1 9.53277 22.8476 9.89074
1 11.1118 23.6504 10.673
1 11.9055 22.8567 10.673
1 11.9086 23.6481 9.87946
1 11.0985 22.8777 9.88985
1 12.6992 23.6504 10.673
1 13.4929 22.8567 10.673
1 13.5059 23.6518 9.86545
1 12.7301 22.8545 9.87191
1 14.2866 23.6504 10.673
1 15.0803 22.8567 10.673
1 15.0821 23.6745 9.88031
1 14.3058 22.8551 9.87929
1 15.874 23.6504 10.673
1 16.6677 22.8567 10.673
1 16.6772 23.6512 9.8822
1 15.8722 22.8517 9.88263
1 17.4614 23.6504 10.673
1 18.2551 22.8567 10.673
1 18.2905 23.6375 9.88369
1 17.472 22.8792 9.8988
1 19.0488 23.6504 10.673
1 19.8425 22.8567 10.673
1 19.8535 23.643 9.88541
1 19.0576 22.8536 9.87347
1 20.6362 23.6504 10.673
1 21.4299 22.8567 10.673
1 21.431 23.6208 9.88467
1 20.6403 22.8499 9.89474
1 22.2236 23.6504 10.673
1 23.0173 22.8567 10.673
1 23.02 23.67 9.8638
1 22.2173 22.8559 9.88355
1 23.811 23.6504 10.673
1 24.6047 22.8567 10.673
1 24.6115 23.6264 9.87572
1 23.8129 22.8293 9.87914
1 25.3984 23.6504 10.673
1 26.1921 22.8567 10.673
1 26.1985 23.6566 9.89804
1 25.4072 22.8435 9.885
1 26.9858 23.6504 10.673
1 27.7795 22.8567 10.673
1 27.7545 23.6604 9.86981
1 26.9842 22.8423 9.88985
1 28.5732 23.6504 10.673
1 29.3669 22.8567 10.673
1 29.3034 23.6435 9.85921
1 28.5284 22.8778 9.86103
1 30 22.063 10.673
1 0.793701 21.2693 10.673
1 0.813922 22.0624 9.86894
1 0.0558517 21.29 9.86615
1 1.5874 22.063 10.673
1 2.3811 21.2693 10.673
1 2.38256 22.0757 9.87692
1 1.60615 21.2928 9.87744
1 3.1748 22.063 10.673
1 3.9685 21.2693 10.673
1 3.98251 22.0693 9.89449
1 3.15012 21.2892 9.85986
1 4.7622 22.063 10.673
1 5.5559 21.2693 10.673
1 5.55534 22.0485 9.8766
1 4.75153 21.2605 9.86709
1 6.3496 22.063 10.673
1 7.1433 21.2693 10.673
1 7.14636 22.0541 9.89155
1 6.35181 21.2432 9.87907
1 7.93701 22.063 10.673
1 8.73071 21.2693 10.673
1 8.70548 22.0665 9.88631
1 7.94813 21.2486 9.87653
1 9.52441 22.063 10.673
1 10.3181 21.2693 10.673
1 10.3022 22.0548 9.89059
1 9.49957 21.2564 9.85792
1 11.1118 22.063 10.673
1 11.9055 21.2693 10.673
1 11.8969 22.058 9.8795
1 11.1167 21.2802 9.88491
1 12.6992 22.063 10.673
1 13.4929 21.2693 10.673
1 13.5012 22.0683 9.87302
1 12.7033 21.2608 9.88578
1 14.2866 22.063 10.673
1 15.0803 21.2693 10.673
1 15.0881 22.0532 9.87831
1 14.2754 21.2865 9.88486
1 15.874 22.063 10.673
1 16.6677 21.2693 10.673
1 16.6734 22.048 9.88803
1 15.8843 21.255 9.89201
1 17.4614 22.063 10.673
1 18.2551 21.2693 10.673
1 18.2462 22.0605 9.88048
1 17.4387 21.2656 9.88683
1 19.0488 22.063 10.673
1 19.8425 21.2693 10.673
1 19.8522 22.0518 9.87351
1 19.0418 21.2447 9.92685
1 20.6362 22.063 10.673
1 21.4299 21.2693 10.673
1 21.419 22.0941 9.88408
1 20.6583 21.2543 9.89076
1 22.2236 22.063 10.673
1 23.0173 21.2693 10.673
1 23.0202 22.0653 9.88489
1 22.2174 21.2499 9.89341
1 23.811 22.063 10.673
1 24.6047 21.2693 10.673
1 24.5962 22.0615 9.88421
1 23.8227 21.2665 9.89209
1 25.3984 22.063 10.673
1 26.1921 21.2693 10.673
1 26.2042 22.0442 9.86803
1 25.4036 21.283 9.8721
1 26.9858 22.063 10.673
1 27.7795 21.2693 10.673
1 27.7584 22.0534 9.87066
1 26.9916 21.2592 9.85927
1 28.5732 22.063 10.673
1 29.3669 21.2693 10.673
1 29.2932 22.087 9.86208
1 28.5539 21.2761 9.84739
1 30 20.4756 10.673
1 0.793701 19.6819 10.673
1 0.812703 20.4917 9.87521
1 0.052818 19.6883 9.8411
1 1.5874 20.4756 10.673
1 2.3811 19.6819 10.673
1 2.41372 20.4736 9.88597
1 1.57114 19.6853 9.87707
1 3.1748 20.4756 10.673
1 3.9685 19.6819 10.673
1 3.98253 20.4748 9.88315
1 3.17668 19.6611 9.87979
1 4.7622 20.4756 10.673
1 5.5559 19.6819 10.673
1 5.55704 20.4641 9.87515
1 4.79031 19.6659 9.86544
1 6.3496 20.4756 10.673
1 7.1433 19.6819 10.673
1 7.14687 20.4883 9.87807
1 6.36485 19.6983 9.85692
1 7.93701 20.4756 10.673
1 8.73071 19.6819 10.673
1 8.7365 20.4912 9.89101
1 7.93786 19.6728 9.89378
1 9.52441 20.4756 10.673
1 10.3181 19.6819 10.673
1 10.3035 20.5039 9.87788
1 9.56886 19.6664 9.89672
1 11.1118 20.4756 10.673
1 11.9055 19.6819 10.673
1 11.9052 20.4756 9.87608
1 11.1117 19.6963 9.86554
1 12.6992 20.4756 10.673
1 13.4929 19.6819 10.673
1 13.4718 20.492 9.87744
1 12.6941 19.6812 9.86564
1 14.2866 20.4756 10.673
1 15.0803 19.6819 10.673
1 15.0875 20.4879 9.88572
1 14.2896 19.7057 9.88044
1 15.874 20.4756 10.673
1 16.6677 19.6819 10.673
1 16.6688 20.4731 9.8818
1 15.8885 19.6753 9.85624
1 17.4614 20.4756 10.673
1 18.2551 19.6819 10.673
1 18.241 20.4504 9.88892
1 17.4563 19.6887 9.88192
1 19.0488 20.4756 10.673
1 19.8425 19.6819 10.673
1 19.8238 20.4847 9.88955
1 19.0212 19.6686 9.89378
1 20.6362 20.4756 10.673
1 21.4299 19.6819 10.673
1 21.4115 20.4522 9.87812
1 20.6515 19.6952 9.87464
1 22.2236 20.4756 10.673
1 23.0173 19.6819 10.673
1 23.0468 20.4762 9.88693
1 22.2022 19.6643 9.87585
1 23.811 20.4756 10.673
1 24.6047 19.6819 10.673
1 24.596 20.5118 9.89205
1 23.8023 19.7 9.87474
1 25.3984 20.4756 10.673
1 26.1921 19.6819 10.673
1 26.1943 20.4886 9.88462
1 25.3829 19.7122 9.88874
1 26.9858 20.4756 10.673
1 27.7795 19.6819 10.673
1 27.7739 20.4728 9.88068
1 26.968 19.6764 9.88985
1 28.5732 20.4756 10.673
1 29.3669 19.6819 10.673
1 29.3068 20.4798 9.81314
1 28.5294 19.7105 9.87096
1 30 18.8882 10.673
1 0.793701 18.0945 10.673
1 0.813261 18.8803 9.85908
1 0.06982 18.0906 9.85662
1 1.5874 18.8882 10.673
1 2.3811 18.0945 10.673
1 2.39568 18.8894 9.85236
1 1.57746 18.1275 9.8609
1 3.1748 18.8882 10.673
1 3.9685 18.0945 10.673
1 3.98401 18.8846 9.89043
1 3.18755 18.1169 9.87464
1 4.7622 18.8882 10.673
1 5.5559 18.0945 10.673
1 5.5767 18.8713 9.87805
1 4.77634 18.1102 9.90451
1 6.3496 18.8882 10.673
1 7.1433 18.0945 10.673
1 7.11062 18.9026 9.88092
1 6.34756 18.0824 9.87865
1 7.93701 18.8882 10.673
1 8.73071 18.0945 10.673
1 8.72654 18.9045 9.88214
1 7.94103 18.0992 9.88426
1 9.52441 18.8882 10.673
1 10.3181 18.0945 10.673
1 10.3278 18.8752 9.86301
1 9.53549 18.104 9.87511
1 11.1118 18.8882 10.673
1 11.9055 18.0945 10.673
1 11.9241 18.8921 9.85012
1 11.1352 18.0897 9.89866
1 12.6992 18.8882 10.673
1 13.4929 18.0945 10.673
1 13.4886 18.8884 9.88368
1 12.7031 18.0879 9.87797
1 14.2866 18.8882 10.673
1 15.0803 18.0945 10.673
1 15.0811 18.9227 9.88429
1 14.3229 18.0913 9.86514
1 15.874 18.8882 10.673
1 16.6677 18.0945 10.673
1 16.6584 18.911 9.89285
1 15.8848 18.0892 9.87438
1 17.4614 18.8882 10.673
1 18.2551 18.0945 10.673
1 18.2386 18.8863 9.86898
1 17.4427 18.1122 9.91098
1 19.0488 18.8882 10.673
1 19.8425 18.0945 10.673
1 19.868 18.9164 9.88816
1 19.0403 18.1095 9.87686
1 20.6362 18.8882 10.673
1 21.4299 18.0945 10.673
1 21.419 18.8787 9.87788
1 20.6241 18.0825 9.86456
1 22.2236 18.8882 10.673
1 23.0173 18.0945 10.673
1 23.026 18.8867 9.89033
1 22.2411 18.0902 9.88801
1 23.811 18.8882 10.673
1 24.6047 18.0945 10.673
1 24.5957 18.881 9.88712
1 23.8251 18.0763 9.87514
1 25.3984 18.8882 10.673
1 26.1921 18.0945 10.673
1 26.1747 18.9186 9.86043
1 25.3912 18.0937 9.87238
1 26.9858 18.8882 10.673
1 27.7795 18.0945 10.673
1 27.7762 18.8826 9.89108
1 26.9852 18.1122 9.90722
1 28.5732 18.8882 10.673
1 29.3669 18.0945 10.673
1 29.2908 18.878 9.8486
1 28.5485 18.0883 9.8761
1 30 17.3008 10.673
1 0.793701 16.5071 10.673
1 0.819382 17.3192 9.88518
1 0.0588163 16.5151 9.85124
1 1.5874 17.3008 10.673
1 2.3811 16.5071 10.673
1 2.38516 17.3213 9.88521
1 1.61438 16.4987 9.87762
1 3.1748 17.3008 10.673
1 3.9685 16.5071 10.673
1 3.98873 17.3145 9.86538
1 3.18608 16.4973 9.89332
1 4.7622 17.3008 10.673
1 5.5559 16.5071 10.673
1 5.53241 17.3401 9.89442
1 4.76277 16.5144 9.88499
1 6.3496 17.3008 10.673
1 7.1433 16.5071 10.673
1 7.13186 17.3232 9.899
1 6.33865 16.5128 9.90682
1 7.93701 17.3008 10.673
1 8.73071 16.5071 10.673
1 8.71594 17.3207 9.89699
1 7.93017 16.5033 9.8821
1 9.52441 17.3008 10.673
1 10.3181 16.5071 10.673
1 10.3012 17.317 9.88954
1 9.52469 16.5225 9.88472
1 11.1118 17.3008 10.673
1 11.9055 16.5071 10.673
1 11.9077 17.3176 9.87096
1 11.1007 16.5324 9.90506
1 12.6992 17.3008 10.673
1 13.4929 16.5071 10.673
1 13.4959 17.2852 9.87036
1 12.7329 16.5171 9.85805
1 14.2866 17.3008 10.673
1 15.0803 16.5071 10.673
1 15.0881 17.34 9.87538
1 14.2871 16.5055 9.89024
1 15.874 17.3008 10.673
1 16.6677 16.5071 10.673
1 16.665 17.2942 9.88881
1 15.8711 16.4834 9.87273
1 17.4614 17.3008 10.673
1 18.2551 16.5071 10.673
1 18.2461 17.3079 9.88746
1 17.4686 16.491 9.87866
1 19.0488 17.3008 10.673
1 19.8425 16.5071 10.673
1 19.8412 17.3029 9.8753
1 19.0614 16.4927 9.8637
1 20.6362 17.3008 10.673
1 21.4299 16.5071 10.673
1 21.4338 17.2902 9.89781
1 20.67 16.4982 9.87381
1 22.2236 17.3008 10.673
1 23.0173 16.5071 10.673
1 23.0333 17.29 9.87892
1 22.2367 16.4889 9.89868
1 23.811 17.3008 10.673
1 24.6047 16.5071 10.673
1 24.6004 17.3046 9.87236
1 23.8132 16.4931 9.87615
1 25.3984 17.3008 10.673
1 26.1921 16.5071 10.673
1 26.1954 17.2884 9.88615
1 25.4107 16.4989 9.86948
1 26.9858 17.3008 10.673
1 27.7795 16.5071 10.673
1 27.7754 17.2654 9.87748
1 26.9725 16.5036 9.88553
1 28.5732 17.3008 10.673
1 29.3669 16.5071 10.673
1 29.3105 17.2951 9.84143
1 28.5346 16.5043 9.8993
1 30 15.7134 10.673
1 0.793701 14.9197 10.673
1 0.832549 15.7364 9.85978
1 0.0718134 14.9162 9.85758
1 1.5874 15.7134 10.673
1 2.3811 14.9197 10.673
1 2.40322 15.7384 9.87928
1 1.60956 14.9411 9.88769
1 3.1748 15.7134 10.673
1 3.9685 14.9197 10.673
1 3.96988 15.7051 9.88827
1 3.18706 14.9485 9.89977
1 4.7622 15.7134 10.673
1 5.5559 14.9197 10.673
1 5.56766 15.7218 9.89753
1 4.79253 14.9266 9.89914
1 6.3496 15.7134 10.673
1 7.1433 14.9197 10.673
1 7.14753 15.712 9.86742
1 6.35005 14.9281 9.87311
1 7.93701 15.7134 10.673
1 8.73071 14.9197 10.673
1 8.73111 15.7159 9.87017
1 7.91224 14.8965 9.88377
1 9.52441 15.7134 10.673
1 10.3181 14.9197 10.673
1 10.3275 15.7059 9.88459
1 9.5268 14.9059 9.8905
1 11.1118 15.7134 10.673
1 11.9055 14.9197 10.673
1 11.9131 15.7271 9.86335
1 11.1196 14.9293 9.88676
1 12.6992 15.7134 10.673
1 13.4929 14.9197 10.673
1 13.499 15.7285 9.88207
1 12.7161 14.9394 9.8993
1 14.2866 15.7134 10.673
1 15.0803 14.9197 10.673
1 15.0851 15.7054 9.90097
1 14.2797 14.9047 9.87977
1 15.874 15.7134 10.673
1 16.6677 14.9197 10.673
1 16.6761 15.6966 9.87389
1 15.8896 14.9164 9.86818
1 17.4614 15.7134 10.673
1 18.2551 14.9197 10.673
1 18.2757 15.6975 9.87763
1 17.4577 14.9191 9.89903
1 19.0488 15.7134 10.673
1 19.8425 14.9197 10.673
1 19.8531 15.71 9.88069
1 19.0434 14.9242 9.90198
1 20.6362 15.7134 10.673
1 21.4299 14.9197 10.673
1 21.4185 15.7227 9.87012
1 20.6324 14.9072 9.87518
1 22.2236 15.7134 10.673
1 23.0173 14.9197 10.673
1 23.0095 15.7068 9.90451
1 22.2007 14.9351 9.87892
1 23.811 15.7134 10.673
1 24.6047 14.9197 10.673
1 24.5967 15.7108 9.90297
1 23.8123 14.9126 9.88943
1 25.3984 15.7134 10.673
1 26.1921 14.9197 10.673
1 26.1674 15.713 9.91404
1 25.3935 14.9029 9.8879
1 26.9858 15.7134 10.673
1 27.7795 14.9197 10.673
1 27.7732 15.6912 9.88147
1 26.9643 14.9192 9.88586
1 28.5732 15.7134 10.673
1 29.3669 14.9197 10.673
1 29.2892 15.7069 9.83332
1 28.5744 14.898 9.89712
1 30 14.126 10.673
1 0.793701 13.3323 10.673
1 0.821216 14.1127 9.86843
1 0.0448011 13.3441 9.84242
1 1.5874 14.126 10.673
1 2.3811 13.3323 10.673
1 2.38483 14.1127 9.86669
1 1.611 13.3279 9.85532
1 3.1748 14.126 10.673
1 3.9685 13.3323 10.673
1 3.96108 14.1254 9.85575
1 3.199 13.3325 9.89195
1 4.7622 14.126 10.673
1 5.5559 13.3323 10.673
1 5.54946 14.1114 9.88207
1 4.76762 13.3676 9.90377
1 6.3496 14.126 10.673
1 7.1433 13.3323 10.673
1 7.14531 14.1092 9.90042
1 6.35576 13.3382 9.88474
1 7.93701 14.126 10.673
1 8.73071 13.3323 10.673
1 8.74812 14.1437 9.87743
1 7.9226 13.3424 9.8623
1 9.52441 14.126 10.673
1 10.3181 13.3323 10.673
1 10.3263 14.1229 9.90363
1 9.50602 13.3357 9.8691
1 11.1118 14.126 10.673
1 11.9055 13.3323 10.673
1 11.9262 14.1328 9.88578
1 11.1414 13.3338 9.85644
1 12.6992 14.126 10.673
1 13.4929 13.3323 10.673
1 13.5078 14.1424 9.86832
1 12.7333 13.3436 9.8645
1 14.2866 14.126 10.673
1 15.0803 13.3323 10.673
1 15.06 14.1039 9.86124
1 14.2671 13.3202 9.87901
1 15.874 14.126 10.673
1 16.6677 13.3323 10.673
1 16.6667 14.1082 9.88544
1 15.8878 13.3228 9.87939
1 17.4614 14.126 10.673
1 18.2551 13.3323 10.673
1 18.2615 14.1472 9.92766
1 17.4822 13.3417 9.87597
1 19.0488 14.126 10.673
1 19.8425 13.3323 10.673
1 19.8552 14.1482 9.91026
1 19.0259 13.3506 9.8863
1 20.6362 14.126 10.673
1 21.4299 13.3323 10.673
1 21.4165 14.1153 9.88906
1 20.6449 13.3173 9.89636
1 22.2236 14.126 10.673
1 23.0173 13.3323 10.673
1 23.0133 14.1109 9.86732
1 22.2264 13.3483 9.89718
1 23.811 14.126 10.673
1 24.6047 13.3323 10.673
1 24.6019 14.1135 9.8862
1 23.8143 13.3399 9.87334
1 25.3984 14.126 10.673
1 26.1921 13.3323 10.673
1 26.1941 14.11 9.89965
1 25.3857 13.3295 9.87841
1 26.9858 14.126 10.673
1 27.7795 13.3323 10.673
1 27.7574 14.1209 9.88692
1 26.9885 13.3163 9.89004
1 28.5732 14.126 10.673
1 29.3669 13.3323 10.673
1 29.284 14.1287 9.85666
1 28.5337 13.3024 9.85161
1 30 12.5386 10.673
1 0.793701 11.7449 10.673
1 0.828214 12.5318 9.87484
1 0.0472366 11.7506 9.85617
1 1.5874 12.5386 10.673
1 2.3811 11.7449 10.673
1 2.3875 12.5418 9.87197
1 1.60385 11.7295 9.89589
1 3.1748 12.5386 10.673
1 3.9685 11.7449 10.673
1 3.97094 12.5508 9.8804
1 3.19116 11.7334 9.8989
1 4.7622 12.5386 10.673
1 5.5559 11.7449 10.673
1 5.56097 12.5355 9.86933
1 4.78864 11.7581 9.88611
1 6.3496 12.5386 10.673
1 7.1433 11.7449 10.673
1 7.12929 12.5297 9.88182
1 6.35905 11.7318 9.87824
1 7.93701 12.5386 10.673
1 8.73071 11.7449 10.673
1 8.71911 12.5569 9.88867
1 7.94742 11.7515 9.86878
1 9.52441 12.5386 10.673
1 10.3181 11.7449 10.673
1 10.3047 12.5345 9.85214
1 9.48969 11.7597 9.85771
1 11.1118 12.5386 10.673
1 11.9055 11.7449 10.673
1 11.9312 12.5143 9.86766
1 11.1167 11.7729 9.85527
1 12.6992 12.5386 10.673
1 13.4929 11.7449 10.673
1 13.5049 12.5156 9.88111
1 12.6563 11.7307 9.89405
1 14.2866 12.5386 10.673
1 15.0803 11.7449 10.673
1 15.0949 12.5774 9.8689
1 14.3029 11.7329 9.85801
1 15.874 12.5386 10.673
1 16.6677 11.7449 10.673
1 16.6749 12.5336 9.86431
1 15.8746 11.7242 9.86285
1 17.4614 12.5386 10.673
1 18.2551 11.7449 10.673
1 18.2717 12.5318 9.88205
1 17.4552 11.724 9.8674
1 19.0488 12.5386 10.673
1 19.8425 11.7449 10.673
1 19.8381 12.5578 9.87407
1 19.0411 11.7655 9.89227
1 20.6362 12.5386 10.673
1 21.4299 11.7449 10.673
1 21.4351 12.5428 9.86837
1 20.6396 11.7212 9.90834
1 22.2236 12.5386 10.673
1 23.0173 11.7449 10.673
1 23.0282 12.5512 9.88326
1 22.2234 11.7579 9.8981
1 23.811 12.5386 10.673
1 24.6047 11.7449 10.673
1 24.5629 12.5439 9.90001
1 23.823 11.7379 9.86832
1 25.3984 12.5386 10.673
1 26.1921 11.7449 10.673
1 26.1944 12.5384 9.91013
1 25.393 11.7275 9.88767
1 26.9858 12.5386 10.673
1 27.7795 11.7449 10.673
1 27.7574 12.5119 9.8864
1 26.9644 11.7363 9.87871
1 28.5732 12.5386 10.673
1 29.3669 11.7449 10.673
1 29.3032 12.5242 9.84913
1 28.571 11.7491 9.88197
1 30 10.9512 10.673
1 0.793701 10.1575 10.673
1 0.803134 10.9306 9.89079
1 0.0499977 10.1433 9.84511
1 1.5874 10.9512 10.673
1 2.3811 10.1575 10.673
1 2.39667 10.9512 9.87774
1 1.59399 10.1606 9.88332
1 3.1748 10.9512 10.673
1 3.9685 10.1575 10.673
1 4.01248 10.9532 9.89278
1 3.15987 10.1727 9.91146
1 4.7622 10.9512 10.673
1 5.5559 10.1575 10.673
1 5.54882 10.9343 9.90151
1 4.76157 10.1517 9.87264
1 6.3496 10.9512 10.673
1 7.1433 10.1575 10.673
1 7.18565 10.9345 9.8817
1 6.38169 10.1745 9.86858
1 7.93701 10.9512 10.673
1 8.73071 10.1575 10.673
1 8.7397 10.9636 9.89709
1 7.93677 10.1366 9.89656
1 9.52441 10.9512 10.673
1 10.3181 10.1575 10.673
1 10.2956 10.9674 9.88389
1 9.53963 10.1456 9.85127
1 11.1118 10.9512 10.673
1 11.9055 10.1575 10.673
1 11.895 10.9555 9.85472
1 11.1184 10.1436 9.88505
1 12.6992 10.9512 10.673
1 13.4929 10.1575 10.673
1 13.4933 10.9391 9.89213
1 12.7101 10.1711 9.88097
1 14.2866 10.9512 10.673
1 15.0803 10.1575 10.673
1 15.0898 10.9343 9.88821
1 14.309 10.143 9.89353
1 15.874 10.9512 10.673
1 16.6677 10.1575 10.673
1 16.6915 10.9291 9.8726
1 15.8846 10.1467 9.86157
1 17.4614 10.9512 10.673
1 18.2551 10.1575 10.673
1 18.2719 10.9323 9.88284
1 17.4761 10.143 9.86598
1 19.0488 10.9512 10.673
1 19.8425 10.1575 10.673
1 19.8365 10.954 9.89578
1 19.06 10.1464 9.89359
1 20.6362 10.9512 10.673
1 21.4299 10.1575 10.673
1 21.4519 10.9512 9.86537
1 20.6256 10.1701 9.90409
1 22.2236 10.9512 10.673
1 23.0173 10.1575 10.673
1 23.0224 10.9502 9.87523
1 22.2368 10.1499 9.89942
1 23.811 10.9512 10.673
1 24.6047 10.1575 10.673
1 24.5982 10.957 9.88583
1 23.7849 10.1589 9.87706
1 25.3984 10.9512 10.673
1 26.1921 10.1575 10.673
1 26.1678 10.9459 9.88501
1 25.383 10.1549 9.88955
1 26.9858 10.9512 10.673
1 27.7795 10.1575 10.673
1 27.7548 10.9526 9.87732
1 26.9567 10.1365 9.87936
1 28.5732 10.9512 10.673
1 29.3669 10.1575 10.673
1 29.3029 10.9535 9.85486
1 28.5309 10.154 9.87646
1 30 9.36379 10.673
1 0.793701 8.57009 10.673
1 0.783888 9.38333 9.86038
1 0.0664496 8.58354 9.86237
1 1.5874 9.36379 10.673
1 2.3811 8.57009 10.673
1 2.39315 9.36923 9.86585
1 1.59087 8.61144 9.87947
1 3.1748 9.36379 10.673
1 3.9685 8.57009 10.673
1 3.95028 9.38672 9.87931
1 3.18188 8.58268 9.896
1 4.7622 9.36379 10.673
1 5.5559 8.57009 10.673
1 5.54593 9.36904 9.87754
1 4.76674 8.56447 9.8778
1 6.3496 9.36379 10.673
1 7.1433 8.57009 10.673
1 7.12754 9.34695 9.85793
1 6.35062 8.57295 9.85962
1 7.93701 9.36379 10.673
1 8.73071 8.57009 10.673
1 8.7492 9.36021 9.88935
1 7.92359 8.57109 9.8682
1 9.52441 9.36379 10.673
1 10.3181 8.57009 10.673
1 10.3021 9.37469 9.89948
1 9.51915 8.57863 9.8795
1 11.1118 9.36379 10.673
1 11.9055 8.57009 10.673
1 11.9125 9.36736 9.88479
1 11.1162 8.56542 9.86396
1 12.6992 9.36379 10.673
1 13.4929 8.57009 10.673
1 13.496 9.34964 9.88063
1 12.6839 8.55116 9.8924
1 14.2866 9.36379 10.673
1 15.0803 8.57009 10.673
1 15.0781 9.33009 9.87225
1 14.2722 8.55044 9.89519
1 15.874 9.36379 10.673
1 16.6677 8.57009 10.673
1 16.6792 9.36816 9.8682
1 15.8747 8.56323 9.9006
1 17.4614 9.36379 10.673
1 18.2551 8.57009 10.673
1 18.2661 9.37109 9.88071
1 17.4865 8.56936 9.85562
1 19.0488 9.36379 10.673
1 19.8425 8.57009 10.673
1 19.849 9.33284 9.87911
1 19.052 8.5847 9.8487
1 20.6362 9.36379 10.673
1 21.4299 8.57009 10.673
1 21.418 9.36052 9.88317
1 20.6541 8.55817 9.87415
1 22.2236 9.36379 10.673
1 23.0173 8.57009 10.673
1 23.0272 9.37873 9.87516
1 22.2111 8.61487 9.8645
1 23.811 9.36379 10.673
1 24.6047 8.57009 10.673
1 24.5874 9.36693 9.89303
1 23.7867 8.57061 9.88448
1 25.3984 9.36379 10.673
1 26.1921 8.57009 10.673
1 26.1803 9.34424 9.86834
1 25.3908 8.58202 9.89414
1 26.9858 9.36379 10.673
1 27.7795 8.57009 10.673
1 27.7575 9.38203 9.88394
1 26.9884 8.58784 9.86959
1 28.5732 9.36379 10.673
1 29.3669 8.57009 10.673
1 29.2617 9.36888 9.85251
1 28.5278 8.5389 9.87611
1 30 7.77639 10.673
1 0.793701 6.98268 10.673
1 0.823247 7.78714 9.87713
1 0.0751863 6.97636 9.85943
1 1.5874 7.77639 10.673
1 2.3811 6.98268 10.673
1 2.392 7.8136 9.89251
1 1.611 6.98825 9.85992
1 3.1748 7.77639 10.673
1 3.9685 6.98268 10.673
1 3.98102 7.78843 9.90553
1 3.17725 6.98315 9.86869
1 4.7622 7.77639 10.673
1 5.5559 6.98268 10.673
1 5.55483 7.7527 9.86943
1 4.74448 6.97906 9.87283
1 6.3496 7.77639 10.673
1 7.1433 6.98268 10.673
1 7.13636 7.76509 9.89733
1 6.36542 6.98099 9.89509
1 7.93701 7.77639 10.673
1 8.73071 6.98268 10.673
1 8.7414 7.78352 9.8579
1 7.96052 6.96822 9.84747
1 9.52441 7.77639 10.673
1 10.3181 6.98268 10.673
1 10.3162 7.79928 9.87736
1 9.50933 6.99177 9.89001
1 11.1118 7.77639 10.673
1 11.9055 6.98268 10.673
1 11.9126 7.79253 9.86677
1 11.105 7.00385 9.87529
1 12.6992 7.77639 10.673
1 13.4929 6.98268 10.673
1 13.4972 7.77521 9.86091
1 12.7015 7.00958 9.86014
1 14.2866 7.77639 10.673
1 15.0803 6.98268 10.673
1 15.0607 7.76985 9.8901
1 14.266 6.96543 9.88486
1 15.874 7.77639 10.673
1 16.6677 6.98268 10.673
1 16.6682 7.76936 9.86451
1 15.8635 6.97738 9.83923
1 17.4614 7.77639 10.673
1 18.2551 6.98268 10.673
1 18.291 7.78601 9.87497
1 17.4719 7.00087 9.87943
1 19.0488 7.77639 10.673
1 19.8425 6.98268 10.673
1 19.8609 7.76734 9.87942
1 19.0595 7.01425 9.86337
1 20.6362 7.77639 10.673
1 21.4299 6.98268 10.673
1 21.4556 7.78908 9.86569
1 20.658 7.02724 9.89352
1 22.2236 7.77639 10.673
1 23.0173 6.98268 10.673
1 22.984 7.77713 9.87207
1 22.203 6.98098 9.87511
1 23.811 7.77639 10.673
1 24.6047 6.98268 10.673
1 24.585 7.76937 9.88423
1 23.7981 6.9537 9.87652
1 25.3984 7.77639 10.673
1 26.1921 6.98268 10.673
1 26.2069 7.77139 9.85039
1 25.4155 6.97072 9.88801
1 26.9858 7.77639 10.673
1 27.7795 6.98268 10.673
1 27.7704 7.7812 9.89422
1 27.004 6.97726 9.87468
1 28.5732 7.77639 10.673
1 29.3669 6.98268 10.673
1 29.3091 7.77984 9.86208
1 28.542 6.97494 9.87997
1 30 6.18898 10.673
1 0.793701 5.39528 10.673
1 0.852227 6.16949 9.86061
1 0.0469178 5.39273 9.83724
1 1.5874 6.18898 10.673
1 2.3811 5.39528 10.673
1 2.39051 6.18852 9.87203
1 1.58773 5.38649 9.91053
1 3.1748 6.18898 10.673
1 3.9685 5.39528 10.673
1 3.98448 6.19848 9.86929
1 3.18902 5.3855 9.88256
1 4.7622 6.18898 10.673
1 5.5559 5.39528 10.673
1 5.56044 6.20831 9.90439
1 4.77849 5.37497 9.89163
1 6.3496 6.18898 10.673
1 7.1433 5.39528 10.673
1 7.15073 6.16133 9.85819
1 6.33658 5.39672 9.88556
1 7.93701 6.18898 10.673
1 8.73071 5.39528 10.673
1 8.7378 6.19717 9.86427
1 7.95211 5.41281 9.88302
1 9.52441 6.18898 10.673
1 10.3181 5.39528 10.673
1 10.3209 6.18421 9.89254
1 9.51158 5.39271 9.87042
1 11.1118 6.18898 10.673
1 11.9055 5.39528 10.673
1 11.9337 6.21786 9.87035
1 11.1034 5.37963 9.86113
1 12.6992 6.18898 10.673
1 13.4929 5.39528 10.673
1 13.4769 6.18716 9.88764
1 12.6958 5.41088 9.88388
1 14.2866 6.18898 10.673
1 15.0803 5.39528 10.673
1 15.0787 6.1666 9.85441
1 14.2842 5.41172 9.87823
1 15.874 6.18898 10.673
1 16.6677 5.39528 10.673
1 16.6773 6.193 9.86919
1 15.8848 5.41133 9.86588
1 17.4614 6.18898 10.673
1 18.2551 5.39528 10.673
1 18.2575 6.21754 9.85967
1 17.4796 5.40519 9.8854
1 19.0488 6.18898 10.673