9376
Atoms. Timestep: 4000000
1 1.36821e-09 3.55271e-15 10.7494
1 0.793701 29.2063 10.7494
1 0.836633 29.9636 9.91793
1 0.0909393 29.2055 9.89416
1 1.5874 3.55271e-15 10.7494
1 2.3811 29.2063 10.7494
1 2.38725 29.9394 9.93441
1 1.58494 29.1947 9.93409
1 3.1748 3.55271e-15 10.7494
1 3.9685 29.2063 10.7494
1 3.94715 29.9262 9.92454
1 3.16504 29.1803 9.94274
1 4.7622 3.55271e-15 10.7494
1 5.5559 29.2063 10.7494
1 5.57103 29.9365 9.95313
1 4.78236 29.1689 9.90464
1 6.3496 3.55271e-15 10.7494
1 7.1433 29.2063 10.7494
1 7.13909 29.9477 9.90908
1 6.34702 29.1685 9.94501
1 7.93701 3.55271e-15 10.7494
1 8.73071 29.2063 10.7494
1 8.72239 29.9194 9.90928
1 7.93286 29.1864 9.94332
1 9.52441 3.55271e-15 10.7494
1 10.3181 29.2063 10.7494
1 10.3107 29.9318 9.90477
1 9.51791 29.1664 9.95353
1 11.1118 3.55271e-15 10.7494
1 11.9055 29.2063 10.7494
1 11.9109 29.9407 9.93778
1 11.1164 29.1746 9.94917
1 12.6992 3.55271e-15 10.7494
1 13.4929 29.2063 10.7494
1 13.4761 29.9388 9.94221
1 12.7 29.1918 9.97809
1 14.2866 3.55271e-15 10.7494
1 15.0803 29.2063 10.7494
1 15.0844 29.9143 9.91326
1 14.255 29.1691 9.9388
1 15.874 3.55271e-15 10.7494
1 16.6677 29.2063 10.7494
1 16.6851 29.9355 9.90918
1 15.8577 29.1572 9.9516
1 17.4614 3.55271e-15 10.7494
1 18.2551 29.2063 10.7494
1 18.2656 29.9284 9.93374
1 17.4833 29.1589 9.95856
1 19.0488 3.55271e-15 10.7494
1 19.8425 29.2063 10.7494
1 19.8581 29.9082 9.94507
1 19.0583 29.1621 9.95454
1 20.6362 3.55271e-15 10.7494
1 21.4299 29.2063 10.7494
1 21.432 29.9255 9.93685
1 20.6613 29.1616 9.96228
1 22.2236 3.55271e-15 10.7494
1 23.0173 29.2063 10.7494
1 23.028 29.9562 9.92181
1 22.2171 29.1847 9.97535
1 23.811 3.55271e-15 10.7494
1 24.6047 29.2063 10.7494
1 24.608 29.9203 9.94129
1 23.7994 29.1801 9.93577
1 25.3984 3.55271e-15 10.7494
1 26.1921 29.2063 10.7494
1 26.1693 29.9282 9.92791
1 25.3869 29.1744 9.93345
1 26.9858 3.55271e-15 10.7494
1 27.7795 29.2063 10.7494
1 27.7562 29.9223 9.91553
1 27.0039 29.1883 9.95045
1 28.5732 3.55271e-15 10.7494
1 29.3669 29.2063 10.7494
1 29.2887 29.9398 9.87324
1 28.5525 29.173 9.93326
1 1.36821e-09 28.4126 10.7494
1 0.793701 27.6189 10.7494
1 0.819892 28.413 9.94701
1 0.100587 27.6012 9.93729
1 1.5874 28.4126 10.7494
1 2.3811 27.6189 10.7494
1 2.36421 28.4115 9.94447
1 1.59568 27.6563 9.95072
1 3.1748 28.4126 10.7494
1 3.9685 27.6189 10.7494
1 3.95936 28.3973 9.94599
1 3.18999 27.6006 9.96704
1 4.7622 28.4126 10.7494
1 5.5559 27.6189 10.7494
1 5.55847 28.3956 9.95364
1 4.75813 27.5913 9.94587
1 6.3496 28.4126 10.7494
1 7.1433 27.6189 10.7494
1 7.14612 28.4004 9.95076
1 6.34195 27.6408 9.98039
1 7.93701 28.4126 10.7494
1 8.73071 27.6189 10.7494
1 8.73658 28.3648 9.93361
1 7.93374 27.6113 9.97223
1 9.52441 28.4126 10.7494
1 10.3181 27.6189 10.7494
1 10.3343 28.4059 9.98162
1 9.52286 27.5887 9.96928
1 11.1118 28.4126 10.7494
1 11.9055 27.6189 10.7494
1 11.8759 28.3765 9.95719
1 11.0992 27.6147 9.96003
1 12.6992 28.4126 10.7494
1 13.4929 27.6189 10.7494
1 13.4911 28.3967 9.95312
1 12.6863 27.5992 9.96855
1 14.2866 28.4126 10.7494
1 15.0803 27.6189 10.7494
1 15.043 28.4036 9.93956
1 14.2883 27.6122 9.96145
1 15.874 28.4126 10.7494
1 16.6677 27.6189 10.7494
1 16.6625 28.3865 9.9554
1 15.863 27.6359 9.97385
1 17.4614 28.4126 10.7494
1 18.2551 27.6189 10.7494
1 18.2461 28.3908 9.9609
1 17.4384 27.6106 9.97171
1 19.0488 28.4126 10.7494
1 19.8425 27.6189 10.7494
1 19.8634 28.3908 9.94933
1 19.0713 27.6247 9.96132
1 20.6362 28.4126 10.7494
1 21.4299 27.6189 10.7494
1 21.4516 28.3989 9.95378
1 20.6233 27.6408 9.95294
1 22.2236 28.4126 10.7494
1 23.0173 27.6189 10.7494
1 23.0242 28.4045 9.97013
1 22.2261 27.6095 9.93447
1 23.811 28.4126 10.7494
1 24.6047 27.6189 10.7494
1 24.5851 28.3513 9.92526
1 23.7911 27.595 9.97744
1 25.3984 28.4126 10.7494
1 26.1921 27.6189 10.7494
1 26.1908 28.4101 9.94277
1 25.4177 27.6045 9.94591
1 26.9858 28.4126 10.7494
1 27.7795 27.6189 10.7494
1 27.7811 28.3893 9.94144
1 26.9745 27.6205 9.93309
1 28.5732 28.4126 10.7494
1 29.3669 27.6189 10.7494
1 29.3105 28.4186 9.93721
1 28.5469 27.5794 9.96078
1 1.36821e-09 26.8252 10.7494
1 0.793701 26.0315 10.7494
1 0.818892 26.8124 9.95637
1 0.0656081 26.0147 9.93979
1 1.5874 26.8252 10.7494
1 2.3811 26.0315 10.7494
1 2.39207 26.8279 9.97022
1 1.62606 26.0239 9.96066
1 3.1748 26.8252 10.7494
1 3.9685 26.0315 10.7494
1 3.98968 26.8191 9.95139
1 3.18087 26.0343 9.96928
1 4.7622 26.8252 10.7494
1 5.5559 26.0315 10.7494
1 5.56262 26.8184 9.95371
1 4.74636 26.0127 9.96478
1 6.3496 26.8252 10.7494
1 7.1433 26.0315 10.7494
1 7.14377 26.8234 9.97848
1 6.36261 26.0362 9.936
1 7.93701 26.8252 10.7494
1 8.73071 26.0315 10.7494
1 8.73527 26.8191 9.94305
1 7.94844 26.0574 9.94684
1 9.52441 26.8252 10.7494
1 10.3181 26.0315 10.7494
1 10.3376 26.8103 9.96353
1 9.51483 26.0402 9.95769
1 11.1118 26.8252 10.7494
1 11.9055 26.0315 10.7494
1 11.9043 26.8166 9.93534
1 11.1143 26.0119 9.9781
1 12.6992 26.8252 10.7494
1 13.4929 26.0315 10.7494
1 13.5004 26.8022 9.95536
1 12.709 26.0081 9.96309
1 14.2866 26.8252 10.7494
1 15.0803 26.0315 10.7494
1 15.0939 26.837 9.96322
1 14.2995 26.0402 9.97209
1 15.874 26.8252 10.7494
1 16.6677 26.0315 10.7494
1 16.6744 26.7912 9.97345
1 15.8766 26.0164 9.95281
1 17.4614 26.8252 10.7494
1 18.2551 26.0315 10.7494
1 18.2352 26.8194 9.93
1 17.455 26.0199 9.98916
1 19.0488 26.8252 10.7494
1 19.8425 26.0315 10.7494
1 19.8532 26.8204 9.97302
1 19.0446 26.0095 9.9637
1 20.6362 26.8252 10.7494
1 21.4299 26.0315 10.7494
1 21.4117 26.8169 9.94627
1 20.6239 26.0126 9.95683
1 22.2236 26.8252 10.7494
1 23.0173 26.0315 10.7494
1 23.0196 26.81 9.95084
1 22.2455 26.0354 9.95811
1 23.811 26.8252 10.7494
1 24.6047 26.0315 10.7494
1 24.5965 26.8338 9.97477
1 23.8407 26.0319 9.94791
1 25.3984 26.8252 10.7494
1 26.1921 26.0315 10.7494
1 26.2095 26.8287 9.98633
1 25.4056 26.0387 9.9558
1 26.9858 26.8252 10.7494
1 27.7795 26.0315 10.7494
1 27.7676 26.8134 9.95666
1 26.9792 25.9883 9.96821
1 28.5732 26.8252 10.7494
1 29.3669 26.0315 10.7494
1 29.3313 26.7805 9.9353
1 28.555 26.0309 9.95506
1 1.36821e-09 25.2378 10.7494
1 0.793701 24.4441 10.7494
1 0.812501 25.2392 9.95107
1 0.0574811 24.4285 9.90436
1 1.5874 25.2378 10.7494
1 2.3811 24.4441 10.7494
1 2.40186 25.2374 9.97738
1 1.58733 24.4342 9.986
1 3.1748 25.2378 10.7494
1 3.9685 24.4441 10.7494
1 3.95242 25.2284 9.96522
1 3.17636 24.4594 9.95917
1 4.7622 25.2378 10.7494
1 5.5559 24.4441 10.7494
1 5.5567 25.2475 9.93467
1 4.73763 24.4394 9.94799
1 6.3496 25.2378 10.7494
1 7.1433 24.4441 10.7494
1 7.14821 25.24 9.9582
1 6.34285 24.4583 9.95695
1 7.93701 25.2378 10.7494
1 8.73071 24.4441 10.7494
1 8.71265 25.2365 9.95178
1 7.94791 24.4104 9.96047
1 9.52441 25.2378 10.7494
1 10.3181 24.4441 10.7494
1 10.3147 25.2437 9.97283
1 9.535 24.4452 9.94476
1 11.1118 25.2378 10.7494
1 11.9055 24.4441 10.7494
1 11.9035 25.23 9.96111
1 11.1018 24.46 9.96145
1 12.6992 25.2378 10.7494
1 13.4929 24.4441 10.7494
1 13.4826 25.241 9.94474
1 12.705 24.4218 9.9657
1 14.2866 25.2378 10.7494
1 15.0803 24.4441 10.7494
1 15.1114 25.2268 9.95304
1 14.2933 24.4308 9.95841
1 15.874 25.2378 10.7494
1 16.6677 24.4441 10.7494
1 16.6743 25.2326 9.96015
1 15.868 24.4365 9.96947
1 17.4614 25.2378 10.7494
1 18.2551 24.4441 10.7494
1 18.2615 25.2149 9.95434
1 17.4892 24.4299 9.982
1 19.0488 25.2378 10.7494
1 19.8425 24.4441 10.7494
1 19.8275 25.2034 9.9625
1 19.0595 24.4305 9.94806
1 20.6362 25.2378 10.7494
1 21.4299 24.4441 10.7494
1 21.4141 25.2315 9.98064
1 20.624 24.448 9.94986
1 22.2236 25.2378 10.7494
1 23.0173 24.4441 10.7494
1 23.0146 25.2339 9.95596
1 22.2105 24.4236 9.95083
1 23.811 25.2378 10.7494
1 24.6047 24.4441 10.7494
1 24.6099 25.2241 9.93539
1 23.797 24.4524 9.92698
1 25.3984 25.2378 10.7494
1 26.1921 24.4441 10.7494
1 26.1684 25.2203 9.95849
1 25.4074 24.4374 9.95848
1 26.9858 25.2378 10.7494
1 27.7795 24.4441 10.7494
1 27.7486 25.2674 9.95296
1 26.998 24.4527 9.95502
1 28.5732 25.2378 10.7494
1 29.3669 24.4441 10.7494
1 29.2962 25.223 9.91205
1 28.5235 24.4447 9.9554
1 1.36821e-09 23.6504 10.7494
1 0.793701 22.8567 10.7494
1 0.846769 23.628 9.92156
1 0.0204886 22.8315 9.92354
1 1.5874 23.6504 10.7494
1 2.3811 22.8567 10.7494
1 2.39251 23.6356 9.96044
1 1.62043 22.8801 9.95276
1 3.1748 23.6504 10.7494
1 3.9685 22.8567 10.7494
1 3.95726 23.6042 9.95746
1 3.187 22.8287 9.95469
1 4.7622 23.6504 10.7494
1 5.5559 22.8567 10.7494
1 5.56635 23.6702 9.94763
1 4.77781 22.8808 9.97332
1 6.3496 23.6504 10.7494
1 7.1433 22.8567 10.7494
1 7.12948 23.6683 9.98176
1 6.35612 22.8645 9.93183
1 7.93701 23.6504 10.7494
1 8.73071 22.8567 10.7494
1 8.72751 23.6476 9.91276
1 7.92111 22.8759 9.94873
1 9.52441 23.6504 10.7494
1 10.3181 22.8567 10.7494
1 10.3335 23.6438 9.93987
1 9.51716 22.8454 9.94688
1 11.1118 23.6504 10.7494
1 11.9055 22.8567 10.7494
1 11.9008 23.6619 9.93447
1 11.0922 22.8454 9.94656
1 12.6992 23.6504 10.7494
1 13.4929 22.8567 10.7494
1 13.4941 23.6427 9.95774
1 12.6723 22.8572 9.97606
1 14.2866 23.6504 10.7494
1 15.0803 22.8567 10.7494
1 15.0736 23.6123 9.96087
1 14.2818 22.8568 9.94472
1 15.874 23.6504 10.7494
1 16.6677 22.8567 10.7494
1 16.6849 23.6482 9.96269
1 15.8868 22.8458 9.96711
1 17.4614 23.6504 10.7494
1 18.2551 22.8567 10.7494
1 18.2535 23.6263 9.95824
1 17.4596 22.8319 9.97092
1 19.0488 23.6504 10.7494
1 19.8425 22.8567 10.7494
1 19.84 23.6417 9.95837
1 19.0659 22.8329 9.95969
1 20.6362 23.6504 10.7494
1 21.4299 22.8567 10.7494
1 21.4264 23.6545 9.9557
1 20.6425 22.8531 9.97407
1 22.2236 23.6504 10.7494
1 23.0173 22.8567 10.7494
1 23.0001 23.678 9.9255
1 22.2149 22.8664 9.94597
1 23.811 23.6504 10.7494
1 24.6047 22.8567 10.7494
1 24.5988 23.6745 9.96939
1 23.8025 22.8806 9.97716
1 25.3984 23.6504 10.7494
1 26.1921 22.8567 10.7494
1 26.2202 23.6569 9.95647
1 25.3916 22.8897 9.968
1 26.9858 23.6504 10.7494
1 27.7795 22.8567 10.7494
1 27.7845 23.6467 9.9798
1 26.9893 22.877 9.95405
1 28.5732 23.6504 10.7494
1 29.3669 22.8567 10.7494
1 29.3034 23.6366 9.92479
1 28.5518 22.8818 9.96101
1 1.36821e-09 22.063 10.7494
1 0.793701 21.2693 10.7494
1 0.795833 22.0667 9.94798
1 0.0931233 21.268 9.92533
1 1.5874 22.063 10.7494
1 2.3811 21.2693 10.7494
1 2.40346 22.0575 9.9534
1 1.59955 21.281 9.94626
1 3.1748 22.063 10.7494
1 3.9685 21.2693 10.7494
1 3.98818 22.0721 9.94191
1 3.17252 21.3091 9.91729
1 4.7622 22.063 10.7494
1 5.5559 21.2693 10.7494
1 5.56682 22.0756 9.94964
1 4.74849 21.2831 9.96999
1 6.3496 22.063 10.7494
1 7.1433 21.2693 10.7494
1 7.15758 22.0414 9.96293
1 6.33889 21.2478 9.95091
1 7.93701 22.063 10.7494
1 8.73071 21.2693 10.7494
1 8.73883 22.0504 9.95946
1 7.9567 21.2793 9.97984
1 9.52441 22.063 10.7494
1 10.3181 21.2693 10.7494
1 10.3148 22.0482 9.95228
1 9.51384 21.2491 9.9713
1 11.1118 22.063 10.7494
1 11.9055 21.2693 10.7494
1 11.9007 22.0528 9.96917
1 11.1248 21.2939 9.98455
1 12.6992 22.063 10.7494
1 13.4929 21.2693 10.7494
1 13.4937 22.0516 9.9652
1 12.6994 21.2513 9.9509
1 14.2866 22.063 10.7494
1 15.0803 21.2693 10.7494
1 15.1063 22.0784 9.95503
1 14.2796 21.2765 9.92737
1 15.874 22.063 10.7494
1 16.6677 21.2693 10.7494
1 16.6908 22.0681 9.9571
1 15.8799 21.2752 9.96479
1 17.4614 22.063 10.7494
1 18.2551 21.2693 10.7494
1 18.2616 22.0453 9.93875
1 17.4568 21.2595 9.95599
1 19.0488 22.063 10.7494
1 19.8425 21.2693 10.7494
1 19.8495 22.0254 9.99005
1 19.0591 21.2449 9.94899
1 20.6362 22.063 10.7494
1 21.4299 21.2693 10.7494
1 21.4387 22.0534 9.94905
1 20.6321 21.2537 9.93943
1 22.2236 22.063 10.7494
1 23.0173 21.2693 10.7494
1 23.0232 22.0881 9.9645
1 22.2341 21.2666 9.96695
1 23.811 22.063 10.7494
1 24.6047 21.2693 10.7494
1 24.5933 22.0815 9.9642
1 23.8119 21.2624 9.94924
1 25.3984 22.063 10.7494
1 26.1921 21.2693 10.7494
1 26.2074 22.0494 9.96177
1 25.3756 21.2671 9.95963
1 26.9858 22.063 10.7494
1 27.7795 21.2693 10.7494
1 27.7818 22.0688 9.9649
1 26.9977 21.2808 9.94768
1 28.5732 22.063 10.7494
1 29.3669 21.2693 10.7494
1 29.2993 22.0444 9.9122
1 28.5392 21.264 9.94576
1 1.36821e-09 20.4756 10.7494
1 0.793701 19.6819 10.7494
1 0.841763 20.4761 9.93366
1 0.0865138 19.6856 9.88672
1 1.5874 20.4756 10.7494
1 2.3811 19.6819 10.7494
1 2.38977 20.471 9.96208
1 1.61435 19.6816 9.95164
1 3.1748 20.4756 10.7494
1 3.9685 19.6819 10.7494
1 3.99028 20.4828 9.94632
1 3.17333 19.6837 9.94134
1 4.7622 20.4756 10.7494
1 5.5559 19.6819 10.7494
1 5.54738 20.4651 9.96202
1 4.75311 19.6698 9.96372
1 6.3496 20.4756 10.7494
1 7.1433 19.6819 10.7494
1 7.13415 20.4757 9.98983
1 6.33234 19.6667 9.98962
1 7.93701 20.4756 10.7494
1 8.73071 19.6819 10.7494
1 8.72929 20.4591 9.97705
1 7.93203 19.666 9.95517
1 9.52441 20.4756 10.7494
1 10.3181 19.6819 10.7494
1 10.3268 20.5018 9.94979
1 9.51824 19.6738 9.97863
1 11.1118 20.4756 10.7494
1 11.9055 19.6819 10.7494
1 11.8995 20.4739 9.9867
1 11.1107 19.7053 9.94481
1 12.6992 20.4756 10.7494
1 13.4929 19.6819 10.7494
1 13.4913 20.482 9.94775
1 12.6778 19.7095 9.95812
1 14.2866 20.4756 10.7494
1 15.0803 19.6819 10.7494
1 15.0737 20.482 9.9629
1 14.2556 19.6848 9.93078
1 15.874 20.4756 10.7494
1 16.6677 19.6819 10.7494
1 16.6802 20.4735 9.95419
1 15.8905 19.6924 9.97697
1 17.4614 20.4756 10.7494
1 18.2551 19.6819 10.7494
1 18.254 20.4833 9.95071
1 17.4888 19.6933 9.96905
1 19.0488 20.4756 10.7494
1 19.8425 19.6819 10.7494
1 19.8531 20.4449 9.94425
1 19.04 19.674 9.95212
1 20.6362 20.4756 10.7494
1 21.4299 19.6819 10.7494
1 21.4347 20.4843 9.99149
1 20.6508 19.6949 9.98824
1 22.2236 20.4756 10.7494
1 23.0173 19.6819 10.7494
1 23.0254 20.4579 9.96055
1 22.2303 19.6618 9.92579
1 23.811 20.4756 10.7494
1 24.6047 19.6819 10.7494
1 24.5766 20.4944 9.9486
1 23.7976 19.6746 9.96751
1 25.3984 20.4756 10.7494
1 26.1921 19.6819 10.7494
1 26.1822 20.4875 9.95256
1 25.3787 19.6807 9.95046
1 26.9858 20.4756 10.7494
1 27.7795 19.6819 10.7494
1 27.7857 20.4801 9.93829
1 26.9744 19.6717 9.95247
1 28.5732 20.4756 10.7494
1 29.3669 19.6819 10.7494
1 29.3291 20.4685 9.91408
1 28.5642 19.6674 9.95503
1 1.36821e-09 18.8882 10.7494
1 0.793701 18.0945 10.7494
1 0.835662 18.8702 9.93958
1 0.0580755 18.0989 9.92599
1 1.5874 18.8882 10.7494
1 2.3811 18.0945 10.7494
1 2.37462 18.8951 9.96171
1 1.59823 18.1073 9.92244
1 3.1748 18.8882 10.7494
1 3.9685 18.0945 10.7494
1 3.94925 18.8919 9.94982
1 3.17244 18.0953 9.96311
1 4.7622 18.8882 10.7494
1 5.5559 18.0945 10.7494
1 5.55654 18.8721 9.94981
1 4.75951 18.0959 9.96772
1 6.3496 18.8882 10.7494
1 7.1433 18.0945 10.7494
1 7.15972 18.8601 9.96665
1 6.33445 18.069 9.9955
1 7.93701 18.8882 10.7494
1 8.73071 18.0945 10.7494
1 8.72766 18.8774 9.97474
1 7.93578 18.0916 9.96084
1 9.52441 18.8882 10.7494
1 10.3181 18.0945 10.7494
1 10.3389 18.9079 9.95266
1 9.51516 18.1187 9.94804
1 11.1118 18.8882 10.7494
1 11.9055 18.0945 10.7494
1 11.9199 18.9081 9.92696
1 11.1232 18.1104 9.9528
1 12.6992 18.8882 10.7494
1 13.4929 18.0945 10.7494
1 13.5034 18.8831 9.93877
1 12.6976 18.1118 9.96106
1 14.2866 18.8882 10.7494
1 15.0803 18.0945 10.7494
1 15.0842 18.8953 9.95215
1 14.2867 18.0964 9.94919
1 15.874 18.8882 10.7494
1 16.6677 18.0945 10.7494
1 16.682 18.8766 9.9646
1 15.873 18.0922 9.95232
1 17.4614 18.8882 10.7494
1 18.2551 18.0945 10.7494
1 18.2676 18.9037 9.9472
1 17.4707 18.1209 9.95979
1 19.0488 18.8882 10.7494
1 19.8425 18.0945 10.7494
1 19.8341 18.8796 9.97436
1 19.0488 18.1162 9.95431
1 20.6362 18.8882 10.7494
1 21.4299 18.0945 10.7494
1 21.4556 18.9 9.93575
1 20.6318 18.0989 9.95843
1 22.2236 18.8882 10.7494
1 23.0173 18.0945 10.7494
1 23.014 18.8826 9.96658
1 22.2461 18.1109 9.96973
1 23.811 18.8882 10.7494
1 24.6047 18.0945 10.7494
1 24.6005 18.9122 9.99451
1 23.8078 18.1043 9.96345
1 25.3984 18.8882 10.7494
1 26.1921 18.0945 10.7494
1 26.1858 18.8931 9.94501
1 25.3865 18.0841 9.94863
1 26.9858 18.8882 10.7494
1 27.7795 18.0945 10.7494
1 27.7648 18.8692 9.94063
1 26.962 18.096 9.95435
1 28.5732 18.8882 10.7494
1 29.3669 18.0945 10.7494
1 29.3185 18.8854 9.93488
1 28.539 18.1219 9.97102
1 1.36821e-09 17.3008 10.7494
1 0.793701 16.5071 10.7494
1 0.813963 17.3052 9.93326
1 0.0740034 16.4864 9.93389
1 1.5874 17.3008 10.7494
1 2.3811 16.5071 10.7494
1 2.3957 17.3231 9.96121
1 1.63039 16.5211 9.97056
1 3.1748 17.3008 10.7494
1 3.9685 16.5071 10.7494
1 3.97086 17.3049 9.9768
1 3.18957 16.5136 9.96056
1 4.7622 17.3008 10.7494
1 5.5559 16.5071 10.7494
1 5.55552 17.3104 9.95216
1 4.77042 16.4918 9.96974
1 6.3496 17.3008 10.7494
1 7.1433 16.5071 10.7494
1 7.1474 17.3059 9.95771
1 6.34683 16.5383 9.96658
1 7.93701 17.3008 10.7494
1 8.73071 16.5071 10.7494
1 8.72553 17.3211 9.97465
1 7.9188 16.518 9.98695
1 9.52441 17.3008 10.7494
1 10.3181 16.5071 10.7494
1 10.3079 17.3156 9.97549
1 9.52025 16.5128 9.98229
1 11.1118 17.3008 10.7494
1 11.9055 16.5071 10.7494
1 11.9153 17.3088 9.96568
1 11.0987 16.5304 9.96257
1 12.6992 17.3008 10.7494
1 13.4929 16.5071 10.7494
1 13.4886 17.3105 9.94168
1 12.6973 16.5187 9.96215
1 14.2866 17.3008 10.7494
1 15.0803 16.5071 10.7494
1 15.0701 17.295 9.97096
1 14.2679 16.4752 9.95829
1 15.874 17.3008 10.7494
1 16.6677 16.5071 10.7494
1 16.6777 17.3165 9.94107
1 15.9007 16.5081 9.9675
1 17.4614 17.3008 10.7494
1 18.2551 16.5071 10.7494
1 18.2156 17.3074 9.95149
1 17.4402 16.5296 9.94361
1 19.0488 17.3008 10.7494
1 19.8425 16.5071 10.7494
1 19.8526 17.2818 9.94738
1 19.0268 16.5126 9.94685
1 20.6362 17.3008 10.7494
1 21.4299 16.5071 10.7494
1 21.4109 17.2876 9.96046
1 20.6245 16.5078 9.95788
1 22.2236 17.3008 10.7494
1 23.0173 16.5071 10.7494
1 22.9976 17.2838 9.96718
1 22.2261 16.5024 9.96017
1 23.811 17.3008 10.7494
1 24.6047 16.5071 10.7494
1 24.6122 17.3058 9.95568
1 23.7912 16.4926 9.94184
1 25.3984 17.3008 10.7494
1 26.1921 16.5071 10.7494
1 26.1753 17.3063 9.95391
1 25.3808 16.502 9.94929
1 26.9858 17.3008 10.7494
1 27.7795 16.5071 10.7494
1 27.7592 17.2956 9.95682
1 26.9757 16.5053 9.94086
1 28.5732 17.3008 10.7494
1 29.3669 16.5071 10.7494
1 29.3091 17.3016 9.94877
1 28.5274 16.4869 9.94133
1 1.36821e-09 15.7134 10.7494
1 0.793701 14.9197 10.7494
1 0.809059 15.73 9.95529
1 0.0465437 14.9444 9.94565
1 1.5874 15.7134 10.7494
1 2.3811 14.9197 10.7494
1 2.38782 15.7017 9.96042
1 1.60093 14.9384 9.96215
1 3.1748 15.7134 10.7494
1 3.9685 14.9197 10.7494
1 3.98315 15.7247 9.96785
1 3.17601 14.9312 9.96938
1 4.7622 15.7134 10.7494
1 5.5559 14.9197 10.7494
1 5.56857 15.725 9.95734
1 4.80099 14.9293 9.95217
1 6.3496 15.7134 10.7494
1 7.1433 14.9197 10.7494
1 7.14774 15.7188 9.97877
1 6.34461 14.9223 9.94909
1 7.93701 15.7134 10.7494
1 8.73071 14.9197 10.7494
1 8.71091 15.6865 9.98314
1 7.93286 14.9048 9.96926
1 9.52441 15.7134 10.7494
1 10.3181 14.9197 10.7494
1 10.3235 15.7045 9.96307
1 9.51793 14.912 9.95103
1 11.1118 15.7134 10.7494
1 11.9055 14.9197 10.7494
1 11.8973 15.7104 9.97957
1 11.1229 14.9255 9.95015
1 12.6992 15.7134 10.7494
1 13.4929 14.9197 10.7494
1 13.482 15.7062 9.9553
1 12.6917 14.9158 9.97481
1 14.2866 15.7134 10.7494
1 15.0803 14.9197 10.7494
1 15.0662 15.6928 9.96281
1 14.2792 14.9181 9.95729
1 15.874 15.7134 10.7494
1 16.6677 14.9197 10.7494
1 16.6524 15.7227 9.93539
1 15.8726 14.93 9.93777
1 17.4614 15.7134 10.7494
1 18.2551 14.9197 10.7494
1 18.2524 15.7151 9.9495
1 17.4317 14.9043 9.94806
1 19.0488 15.7134 10.7494
1 19.8425 14.9197 10.7494
1 19.8511 15.6916 9.95894
1 19.0488 14.9064 9.95645
1 20.6362 15.7134 10.7494
1 21.4299 14.9197 10.7494
1 21.4219 15.7011 9.94572
1 20.6329 14.936 9.94912
1 22.2236 15.7134 10.7494
1 23.0173 14.9197 10.7494
1 23.0028 15.7058 9.95244
1 22.2275 14.9243 9.95392
1 23.811 15.7134 10.7494
1 24.6047 14.9197 10.7494
1 24.6041 15.7147 9.9371
1 23.8097 14.9115 9.94037
1 25.3984 15.7134 10.7494
1 26.1921 14.9197 10.7494
1 26.1802 15.7003 9.9438
1 25.3926 14.9199 9.94353
1 26.9858 15.7134 10.7494
1 27.7795 14.9197 10.7494
1 27.7379 15.7065 9.94412
1 26.9737 14.8799 9.93661
1 28.5732 15.7134 10.7494
1 29.3669 14.9197 10.7494
1 29.2971 15.7301 9.95834
1 28.5447 14.9222 9.97954
1 1.36821e-09 14.126 10.7494
1 0.793701 13.3323 10.7494
1 0.81589 14.1475 9.94402
1 0.0691013 13.3546 9.91091
1 1.5874 14.126 10.7494
1 2.3811 13.3323 10.7494
1 2.38153 14.1386 9.96886
1 1.6185 13.3452 9.97483
1 3.1748 14.126 10.7494
1 3.9685 13.3323 10.7494
1 4.00513 14.1292 9.96856
1 3.184 13.356 9.97226
1 4.7622 14.126 10.7494
1 5.5559 13.3323 10.7494
1 5.5701 14.0946 9.93731
1 4.77834 13.332 9.93633
1 6.3496 14.126 10.7494
1 7.1433 13.3323 10.7494
1 7.14714 14.1247 9.96455
1 6.34128 13.3392 9.95181
1 7.93701 14.126 10.7494
1 8.73071 13.3323 10.7494
1 8.75081 14.0942 9.97059
1 7.9122 13.3429 9.95888
1 9.52441 14.126 10.7494
1 10.3181 13.3323 10.7494
1 10.3145 14.1156 9.96058
1 9.53676 13.3377 9.95137
1 11.1118 14.126 10.7494
1 11.9055 13.3323 10.7494
1 11.9171 14.1132 9.94897
1 11.1329 13.3337 9.98604
1 12.6992 14.126 10.7494
1 13.4929 13.3323 10.7494
1 13.476 14.1293 9.97397
1 12.6895 13.3537 9.95693
1 14.2866 14.126 10.7494
1 15.0803 13.3323 10.7494
1 15.0848 14.1302 9.95997
1 14.2825 13.3237 9.93639
1 15.874 14.126 10.7494
1 16.6677 13.3323 10.7494
1 16.6672 14.1062 9.95395
1 15.8638 13.338 9.94222
1 17.4614 14.126 10.7494
1 18.2551 13.3323 10.7494
1 18.2414 14.1352 9.93218
1 17.4502 13.3405 9.92752
1 19.0488 14.126 10.7494
1 19.8425 13.3323 10.7494
1 19.8355 14.0972 9.96607
1 19.033 13.3449 9.95945
1 20.6362 14.126 10.7494
1 21.4299 13.3323 10.7494
1 21.4515 14.1341 9.94316
1 20.6375 13.3036 9.94392
1 22.2236 14.126 10.7494
1 23.0173 13.3323 10.7494
1 23.019 14.105 9.92073
1 22.2042 13.3337 9.94954
1 23.811 14.126 10.7494
1 24.6047 13.3323 10.7494
1 24.5909 14.1265 9.94319
1 23.8174 13.3274 9.9621
1 25.3984 14.126 10.7494
1 26.1921 13.3323 10.7494
1 26.1741 14.1076 9.96448
1 25.3781 13.3447 9.97223
1 26.9858 14.126 10.7494
1 27.7795 13.3323 10.7494
1 27.75 14.1029 9.95249
1 26.9707 13.3435 9.96491
1 28.5732 14.126 10.7494
1 29.3669 13.3323 10.7494
1 29.2949 14.1384 9.92195
1 28.5571 13.3276 9.95065
1 1.36821e-09 12.5386 10.7494
1 0.793701 11.7449 10.7494
1 0.806621 12.5506 9.94997
1 0.0449125 11.731 9.90802
1 1.5874 12.5386 10.7494
1 2.3811 11.7449 10.7494
1 2.39512 12.5072 9.96496
1 1.60594 11.7478 9.99015
1 3.1748 12.5386 10.7494
1 3.9685 11.7449 10.7494
1 3.98333 12.5356 9.96904
1 3.19723 11.7412 9.95728
1 4.7622 12.5386 10.7494
1 5.5559 11.7449 10.7494
1 5.55187 12.5463 9.9584
1 4.75427 11.731 9.93673
1 6.3496 12.5386 10.7494
1 7.1433 11.7449 10.7494
1 7.12657 12.5395 9.93226
1 6.34673 11.7559 9.96167
1 7.93701 12.5386 10.7494
1 8.73071 11.7449 10.7494
1 8.73549 12.5299 9.9462
1 7.93487 11.7467 9.95151
1 9.52441 12.5386 10.7494
1 10.3181 11.7449 10.7494
1 10.286 12.5569 9.96626
1 9.51243 11.7381 9.96345
1 11.1118 12.5386 10.7494
1 11.9055 11.7449 10.7494
1 11.911 12.5453 9.95959
1 11.1142 11.7432 9.96583
1 12.6992 12.5386 10.7494
1 13.4929 11.7449 10.7494
1 13.4746 12.5314 9.94028
1 12.6986 11.7353 9.96371
1 14.2866 12.5386 10.7494
1 15.0803 11.7449 10.7494
1 15.0659 12.5088 9.95205
1 14.2676 11.7481 9.96532
1 15.874 12.5386 10.7494
1 16.6677 11.7449 10.7494
1 16.6529 12.5178 9.9412
1 15.8822 11.731 9.94138
1 17.4614 12.5386 10.7494
1 18.2551 11.7449 10.7494
1 18.2676 12.5355 9.9898
1 17.4886 11.7619 9.95698
1 19.0488 12.5386 10.7494
1 19.8425 11.7449 10.7494
1 19.8372 12.5435 9.95021
1 19.0572 11.7243 9.93669
1 20.6362 12.5386 10.7494
1 21.4299 11.7449 10.7494
1 21.4427 12.5334 9.97821
1 20.6335 11.7622 9.96028
1 22.2236 12.5386 10.7494
1 23.0173 11.7449 10.7494
1 23.0075 12.5579 9.98472
1 22.2417 11.738 9.9717
1 23.811 12.5386 10.7494
1 24.6047 11.7449 10.7494
1 24.5879 12.5087 9.94776
1 23.7994 11.7568 9.96012
1 25.3984 12.5386 10.7494
1 26.1921 11.7449 10.7494
1 26.1941 12.5416 9.97057
1 25.3813 11.7372 9.9688
1 26.9858 12.5386 10.7494
1 27.7795 11.7449 10.7494
1 27.7736 12.5337 9.97264
1 27.0046 11.7267 9.94389
1 28.5732 12.5386 10.7494
1 29.3669 11.7449 10.7494
1 29.3094 12.5226 9.9255
1 28.5257 11.7378 9.93418
1 1.36821e-09 10.9512 10.7494
1 0.793701 10.1575 10.7494
1 0.808203 10.9781 9.96149
1 0.0510064 10.1524 9.94023
1 1.5874 10.9512 10.7494
1 2.3811 10.1575 10.7494
1 2.43451 10.9602 9.96788
1 1.60707 10.1664 9.95088
1 3.1748 10.9512 10.7494
1 3.9685 10.1575 10.7494
1 3.99454 10.9492 9.94984
1 3.20133 10.1535 9.9444
1 4.7622 10.9512 10.7494
1 5.5559 10.1575 10.7494
1 5.53964 10.9566 9.96064
1 4.75284 10.168 9.94645
1 6.3496 10.9512 10.7494
1 7.1433 10.1575 10.7494
1 7.13818 10.9219 9.97425
1 6.32878 10.1566 9.97098
1 7.93701 10.9512 10.7494
1 8.73071 10.1575 10.7494
1 8.72821 10.9605 9.95793
1 7.96865 10.1276 9.95368
1 9.52441 10.9512 10.7494
1 10.3181 10.1575 10.7494
1 10.3278 10.9599 9.94316
1 9.55771 10.1568 9.98171
1 11.1118 10.9512 10.7494
1 11.9055 10.1575 10.7494
1 11.9029 10.9508 9.93571
1 11.1414 10.1554 9.94312
1 12.6992 10.9512 10.7494
1 13.4929 10.1575 10.7494
1 13.5169 10.9278 9.96227
1 12.7134 10.1587 9.94542
1 14.2866 10.9512 10.7494
1 15.0803 10.1575 10.7494
1 15.0805 10.9268 9.93423
1 14.302 10.147 9.9495
1 15.874 10.9512 10.7494
1 16.6677 10.1575 10.7494
1 16.6683 10.9423 9.95571
1 15.8952 10.1324 9.9714
1 17.4614 10.9512 10.7494
1 18.2551 10.1575 10.7494
1 18.2407 10.963 9.93117
1 17.4244 10.1342 9.95001
1 19.0488 10.9512 10.7494
1 19.8425 10.1575 10.7494
1 19.8438 10.9489 9.97118
1 19.0372 10.1583 9.95278
1 20.6362 10.9512 10.7494
1 21.4299 10.1575 10.7494
1 21.4359 10.9381 9.95331
1 20.6508 10.1336 9.94666
1 22.2236 10.9512 10.7494
1 23.0173 10.1575 10.7494
1 23.0008 10.9131 9.95425
1 22.2105 10.1534 9.96292
1 23.811 10.9512 10.7494
1 24.6047 10.1575 10.7494
1 24.6024 10.9378 9.944
1 23.7933 10.1479 9.97221
1 25.3984 10.9512 10.7494
1 26.1921 10.1575 10.7494
1 26.1966 10.9608 9.95431
1 25.3904 10.1567 9.93681
1 26.9858 10.9512 10.7494
1 27.7795 10.1575 10.7494
1 27.7634 10.9458 9.93424
1 26.9814 10.1512 9.94632
1 28.5732 10.9512 10.7494
1 29.3669 10.1575 10.7494
1 29.3074 10.9563 9.91065
1 28.554 10.1543 9.95199
1 1.36821e-09 9.36379 10.7494
1 0.793701 8.57009 10.7494
1 0.80707 9.36457 9.97971
1 0.0805059 8.57298 9.92595
1 1.5874 9.36379 10.7494
1 2.3811 8.57009 10.7494
1 2.40208 9.36755 9.96616
1 1.6029 8.56224 9.95628
1 3.1748 9.36379 10.7494
1 3.9685 8.57009 10.7494
1 3.99109 9.35784 9.96111
1 3.20807 8.60063 9.94359
1 4.7622 9.36379 10.7494
1 5.5559 8.57009 10.7494
1 5.54552 9.39436 9.9417
1 4.77296 8.58778 9.98135
1 6.3496 9.36379 10.7494
1 7.1433 8.57009 10.7494
1 7.15635 9.36495 9.9477
1 6.34096 8.57498 9.96443
1 7.93701 9.36379 10.7494
1 8.73071 8.57009 10.7494
1 8.73669 9.35277 9.94525
1 7.91782 8.54885 9.94485
1 9.52441 9.36379 10.7494
1 10.3181 8.57009 10.7494
1 10.3293 9.33759 9.97769
1 9.52891 8.55506 9.95617
1 11.1118 9.36379 10.7494
1 11.9055 8.57009 10.7494
1 11.9086 9.35104 9.98122
1 11.0768 8.57082 9.96332
1 12.6992 9.36379 10.7494
1 13.4929 8.57009 10.7494
1 13.4581 9.39008 9.95585
1 12.6954 8.55541 9.94983
1 14.2866 9.36379 10.7494
1 15.0803 8.57009 10.7494
1 15.0945 9.36393 9.93524
1 14.2705 8.57441 9.95266
1 15.874 9.36379 10.7494
1 16.6677 8.57009 10.7494
1 16.6794 9.32681 9.93975
1 15.8613 8.58105 9.98348
1 17.4614 9.36379 10.7494
1 18.2551 8.57009 10.7494
1 18.267 9.36856 9.95402
1 17.4798 8.56249 9.95128
1 19.0488 9.36379 10.7494
1 19.8425 8.57009 10.7494
1 19.8497 9.36608 9.95072
1 19.0674 8.56878 9.93545
1 20.6362 9.36379 10.7494
1 21.4299 8.57009 10.7494
1 21.4317 9.35369 9.97941
1 20.656 8.56866 9.97054
1 22.2236 9.36379 10.7494
1 23.0173 8.57009 10.7494
1 23.0155 9.34826 9.96495
1 22.2102 8.57501 9.94763
1 23.811 9.36379 10.7494
1 24.6047 8.57009 10.7494
1 24.6084 9.35618 9.95125
1 23.8301 8.56783 9.95282
1 25.3984 9.36379 10.7494
1 26.1921 8.57009 10.7494
1 26.1829 9.36015 9.97035
1 25.4082 8.59454 9.95061
1 26.9858 9.36379 10.7494
1 27.7795 8.57009 10.7494
1 27.7769 9.35558 9.95946
1 26.9802 8.55624 9.95364
1 28.5732 9.36379 10.7494
1 29.3669 8.57009 10.7494
1 29.3092 9.36222 9.90226
1 28.5283 8.56512 9.9354
1 1.36821e-09 7.77639 10.7494
1 0.793701 6.98268 10.7494
1 0.813916 7.7832 9.94953
1 0.0671073 6.99249 9.91425
1 1.5874 7.77639 10.7494
1 2.3811 6.98268 10.7494
1 2.39966 7.80205 9.97667
1 1.59965 6.99296 9.97503
1 3.1748 7.77639 10.7494
1 3.9685 6.98268 10.7494
1 3.97064 7.76707 9.96658
1 3.17647 6.97861 9.9788
1 4.7622 7.77639 10.7494
1 5.5559 6.98268 10.7494
1 5.55827 7.78567 9.95887
1 4.78074 6.99161 9.96967
1 6.3496 7.77639 10.7494
1 7.1433 6.98268 10.7494
1 7.15724 7.79226 9.95245
1 6.35809 6.99285 9.97563
1 7.93701 7.77639 10.7494
1 8.73071 6.98268 10.7494
1 8.71238 7.76018 9.95303
1 7.91353 6.98374 9.94537
1 9.52441 7.77639 10.7494
1 10.3181 6.98268 10.7494
1 10.3238 7.772 9.92647
1 9.52178 6.98035 9.94158
1 11.1118 7.77639 10.7494
1 11.9055 6.98268 10.7494
1 11.9004 7.78973 9.96674
1 11.1238 6.99636 9.94221
1 12.6992 7.77639 10.7494
1 13.4929 6.98268 10.7494
1 13.4729 7.79485 9.95886
1 12.7087 6.9938 9.96798
1 14.2866 7.77639 10.7494
1 15.0803 6.98268 10.7494
1 15.0774 7.77557 9.97122
1 14.2774 6.98651 9.93827
1 15.874 7.77639 10.7494
1 16.6677 6.98268 10.7494
1 16.6962 7.77194 9.97301
1 15.8773 6.98325 9.99036
1 17.4614 7.77639 10.7494
1 18.2551 6.98268 10.7494
1 18.2716 7.79419 9.94887
1 17.4666 6.9853 9.98295
1 19.0488 7.77639 10.7494
1 19.8425 6.98268 10.7494
1 19.8481 7.77213 9.96828
1 19.0386 6.97971 9.9676
1 20.6362 7.77639 10.7494
1 21.4299 6.98268 10.7494
1 21.4154 7.78167 9.94634
1 20.6441 6.97013 9.94672
1 22.2236 7.77639 10.7494
1 23.0173 6.98268 10.7494
1 23.0426 7.77442 9.95019
1 22.2282 6.97045 9.94379
1 23.811 7.77639 10.7494
1 24.6047 6.98268 10.7494
1 24.5919 7.77523 9.93162
1 23.8243 6.96839 9.94687
1 25.3984 7.77639 10.7494
1 26.1921 6.98268 10.7494
1 26.1896 7.78505 9.93784
1 25.3804 6.97114 9.94453
1 26.9858 7.77639 10.7494
1 27.7795 6.98268 10.7494
1 27.768 7.76392 9.97506
1 26.9861 6.98482 9.95532
1 28.5732 7.77639 10.7494
1 29.3669 6.98268 10.7494
1 29.2964 7.76076 9.91394
1 28.5776 6.98739 9.94936
1 1.36821e-09 6.18898 10.7494
1 0.793701 5.39528 10.7494
1 0.832863 6.17472 9.91829
1 0.0578604 5.42322 9.93136
1 1.5874 6.18898 10.7494
1 2.3811 5.39528 10.7494
1 2.38312 6.18718 9.9611
1 1.63932 5.37304 9.95881
1 3.1748 6.18898 10.7494
1 3.9685 5.39528 10.7494
1 3.96821 6.1777 9.94586
1 3.19499 5.41099 9.96118
1 4.7622 6.18898 10.7494
1 5.5559 5.39528 10.7494
1 5.55142 6.22131 9.96149
1 4.76288 5.39487 9.96277
1 6.3496 6.18898 10.7494
1 7.1433 5.39528 10.7494
1 7.14212 6.201 9.95751