9376
Atoms. Timestep: 4000000
1 30 3.55271e-15 11.7298
1 0.793701 29.2063 11.7298
1 0.834959 29.9004 10.8795
1 0.0711109 29.1743 10.8937
1 1.5874 3.55271e-15 11.7298
1 2.3811 29.2063 11.7298
1 2.40199 29.9341 10.9095
1 1.60885 29.1928 10.908
1 3.1748 3.55271e-15 11.7298
1 3.9685 29.2063 11.7298
1 3.98782 29.9368 10.9046
1 3.20798 29.1875 10.9217
1 4.7622 3.55271e-15 11.7298
1 5.5559 29.2063 11.7298
1 5.57153 29.9383 10.8823
1 4.78025 29.1661 10.9291
1 6.3496 3.55271e-15 11.7298
1 7.1433 29.2063 11.7298
1 7.15013 29.9048 10.8863
1 6.32302 29.2062 10.9368
1 7.93701 3.55271e-15 11.7298
1 8.73071 29.2063 11.7298
1 8.76319 29.9469 10.9131
1 7.97591 29.1958 10.942
1 9.52441 3.55271e-15 11.7298
1 10.3181 29.2063 11.7298
1 10.3504 29.9439 10.9114
1 9.55103 29.1745 10.9062
1 11.1118 3.55271e-15 11.7298
1 11.9055 29.2063 11.7298
1 11.8937 29.9274 10.8769
1 11.1225 29.1751 10.9032
1 12.6992 3.55271e-15 11.7298
1 13.4929 29.2063 11.7298
1 13.4835 29.9504 10.9056
1 12.6792 29.1922 10.9054
1 14.2866 3.55271e-15 11.7298
1 15.0803 29.2063 11.7298
1 15.0887 29.9328 10.9004
1 14.2649 29.196 10.9028
1 15.874 3.55271e-15 11.7298
1 16.6677 29.2063 11.7298
1 16.6676 29.9449 10.9122
1 15.8709 29.1754 10.9241
1 17.4614 3.55271e-15 11.7298
1 18.2551 29.2063 11.7298
1 18.2421 29.9361 10.8918
1 17.4486 29.173 10.9349
1 19.0488 3.55271e-15 11.7298
1 19.8425 29.2063 11.7298
1 19.8299 29.9029 10.9051
1 19.0418 29.1652 10.8972
1 20.6362 3.55271e-15 11.7298
1 21.4299 29.2063 11.7298
1 21.4111 29.9297 10.916
1 20.638 29.1561 10.9364
1 22.2236 3.55271e-15 11.7298
1 23.0173 29.2063 11.7298
1 22.9693 29.9139 10.8907
1 22.212 29.1813 10.9332
1 23.811 3.55271e-15 11.7298
1 24.6047 29.2063 11.7298
1 24.6133 29.9351 10.9138
1 23.7982 29.16 10.9472
1 25.3984 3.55271e-15 11.7298
1 26.1921 29.2063 11.7298
1 26.1658 29.9297 10.9069
1 25.3938 29.1918 10.9135
1 26.9858 3.55271e-15 11.7298
1 27.7795 29.2063 11.7298
1 27.7453 29.9119 10.8915
1 26.9758 29.1819 10.9159
1 28.5732 3.55271e-15 11.7298
1 29.3669 29.2063 11.7298
1 29.3011 29.9259 10.8568
1 28.5259 29.1546 10.8963
1 30 28.4126 11.7298
1 0.793701 27.6189 11.7298
1 0.842599 28.4116 10.8756
1 0.0712257 27.6112 10.8986
1 1.5874 28.4126 11.7298
1 2.3811 27.6189 11.7298
1 2.41701 28.4009 10.9695
1 1.59571 27.5854 10.922
1 3.1748 28.4126 11.7298
1 3.9685 27.6189 11.7298
1 3.97228 28.3962 10.9382
1 3.18507 27.6006 10.9451
1 4.7622 28.4126 11.7298
1 5.5559 27.6189 11.7298
1 5.57921 28.3942 10.9428
1 4.76823 27.6257 10.929
1 6.3496 28.4126 11.7298
1 7.1433 27.6189 11.7298
1 7.15312 28.401 10.9279
1 6.37911 27.6369 10.916
1 7.93701 28.4126 11.7298
1 8.73071 27.6189 11.7298
1 8.75807 28.3884 10.9546
1 7.93146 27.6057 10.9429
1 9.52441 28.4126 11.7298
1 10.3181 27.6189 11.7298
1 10.3212 28.3908 10.9355
1 9.53146 27.6099 10.9613
1 11.1118 28.4126 11.7298
1 11.9055 27.6189 11.7298
1 11.9067 28.397 10.9364
1 11.0963 27.6233 10.9294
1 12.6992 28.4126 11.7298
1 13.4929 27.6189 11.7298
1 13.4603 28.4017 10.9306
1 12.675 27.6223 10.9276
1 14.2866 28.4126 11.7298
1 15.0803 27.6189 11.7298
1 15.0877 28.413 10.9379
1 14.2983 27.5858 10.9476
1 15.874 28.4126 11.7298
1 16.6677 27.6189 11.7298
1 16.6747 28.3939 10.9297
1 15.863 27.5989 10.9593
1 17.4614 28.4126 11.7298
1 18.2551 27.6189 11.7298
1 18.243 28.4093 10.9259
1 17.4623 27.6335 10.9376
1 19.0488 28.4126 11.7298
1 19.8425 27.6189 11.7298
1 19.8357 28.4068 10.9305
1 19.0659 27.618 10.916
1 20.6362 28.4126 11.7298
1 21.4299 27.6189 11.7298
1 21.433 28.3841 10.9364
1 20.6263 27.6084 10.9494
1 22.2236 28.4126 11.7298
1 23.0173 27.6189 11.7298
1 23.0222 28.3888 10.9345
1 22.2346 27.5797 10.9637
1 23.811 28.4126 11.7298
1 24.6047 27.6189 11.7298
1 24.6065 28.3809 10.9327
1 23.7927 27.5818 10.9798
1 25.3984 28.4126 11.7298
1 26.1921 27.6189 11.7298
1 26.1835 28.3894 10.9263
1 25.4059 27.5966 10.9216
1 26.9858 28.4126 11.7298
1 27.7795 27.6189 11.7298
1 27.7428 28.3959 10.9317
1 26.9834 27.6156 10.9393
1 28.5732 28.4126 11.7298
1 29.3669 27.6189 11.7298
1 29.2578 28.3941 10.924
1 28.5516 27.6398 10.9244
1 30 26.8252 11.7298
1 0.793701 26.0315 11.7298
1 0.821927 26.7942 10.9193
1 0.0851327 26.0289 10.8949
1 1.5874 26.8252 11.7298
1 2.3811 26.0315 11.7298
1 2.4032 26.8124 10.9172
1 1.61692 26.0224 10.9327
1 3.1748 26.8252 11.7298
1 3.9685 26.0315 11.7298
1 3.96127 26.8416 10.9207
1 3.17313 26.0213 10.9448
1 4.7622 26.8252 11.7298
1 5.5559 26.0315 11.7298
1 5.55358 26.8442 10.9811
1 4.76495 26.0383 10.9832
1 6.3496 26.8252 11.7298
1 7.1433 26.0315 11.7298
1 7.1274 26.8359 10.9587
1 6.36128 26.0323 10.9398
1 7.93701 26.8252 11.7298
1 8.73071 26.0315 11.7298
1 8.75062 26.8423 10.9257
1 7.93024 26.0373 10.9178
1 9.52441 26.8252 11.7298
1 10.3181 26.0315 11.7298
1 10.3236 26.8297 10.963
1 9.52251 26.0381 10.9043
1 11.1118 26.8252 11.7298
1 11.9055 26.0315 11.7298
1 11.9144 26.8338 10.9289
1 11.1005 26.033 10.9563
1 12.6992 26.8252 11.7298
1 13.4929 26.0315 11.7298
1 13.4721 26.8189 10.9229
1 12.6998 26.0248 10.9413
1 14.2866 26.8252 11.7298
1 15.0803 26.0315 11.7298
1 15.0887 26.8103 10.9505
1 14.277 26.017 10.94
1 15.874 26.8252 11.7298
1 16.6677 26.0315 11.7298
1 16.677 26.8267 10.9383
1 15.8544 26.0116 10.9518
1 17.4614 26.8252 11.7298
1 18.2551 26.0315 11.7298
1 18.2609 26.8381 10.9243
1 17.4555 26.035 10.9254
1 19.0488 26.8252 11.7298
1 19.8425 26.0315 11.7298
1 19.8624 26.8342 10.9435
1 19.0574 26.0142 10.9418
1 20.6362 26.8252 11.7298
1 21.4299 26.0315 11.7298
1 21.4144 26.8016 10.9915
1 20.6266 26.0011 10.9506
1 22.2236 26.8252 11.7298
1 23.0173 26.0315 11.7298
1 23.0194 26.8205 10.9209
1 22.2151 26.0267 10.9404
1 23.811 26.8252 11.7298
1 24.6047 26.0315 11.7298
1 24.617 26.7987 10.9344
1 23.8162 26.0244 10.9319
1 25.3984 26.8252 11.7298
1 26.1921 26.0315 11.7298
1 26.1707 26.7982 10.9631
1 25.4284 26.017 10.9322
1 26.9858 26.8252 11.7298
1 27.7795 26.0315 11.7298
1 27.7466 26.7953 10.94
1 26.9561 26.0108 10.9274
1 28.5732 26.8252 11.7298
1 29.3669 26.0315 11.7298
1 29.3116 26.7947 10.9029
1 28.5568 26.0275 10.9333
1 30 25.2378 11.7298
1 0.793701 24.4441 11.7298
1 0.827359 25.2351 10.9212
1 0.0692095 24.4376 10.8662
1 1.5874 25.2378 11.7298
1 2.3811 24.4441 11.7298
1 2.37956 25.2251 10.9432
1 1.5934 24.432 10.9157
1 3.1748 25.2378 11.7298
1 3.9685 24.4441 11.7298
1 3.96893 25.2424 10.9348
1 3.18037 24.4148 10.9183
1 4.7622 25.2378 11.7298
1 5.5559 24.4441 11.7298
1 5.56644 25.2137 10.9376
1 4.75383 24.4347 10.9293
1 6.3496 25.2378 11.7298
1 7.1433 24.4441 11.7298
1 7.14285 25.2469 10.919
1 6.34451 24.4317 10.9354
1 7.93701 25.2378 11.7298
1 8.73071 24.4441 11.7298
1 8.70872 25.2485 10.9342
1 7.95263 24.4665 10.9433
1 9.52441 25.2378 11.7298
1 10.3181 24.4441 11.7298
1 10.3223 25.2415 10.9304
1 9.5089 24.442 10.9497
1 11.1118 25.2378 11.7298
1 11.9055 24.4441 11.7298
1 11.8949 25.2646 10.9172
1 11.1179 24.4416 10.944
1 12.6992 25.2378 11.7298
1 13.4929 24.4441 11.7298
1 13.5153 25.2195 10.9189
1 12.6943 24.4523 10.9574
1 14.2866 25.2378 11.7298
1 15.0803 24.4441 11.7298
1 15.0753 25.2203 10.9621
1 14.2712 24.421 10.9521
1 15.874 25.2378 11.7298
1 16.6677 24.4441 11.7298
1 16.6593 25.2371 10.943
1 15.8835 24.4141 10.9618
1 17.4614 25.2378 11.7298
1 18.2551 24.4441 11.7298
1 18.2536 25.2181 10.954
1 17.4375 24.4418 10.9574
1 19.0488 25.2378 11.7298
1 19.8425 24.4441 11.7298
1 19.8483 25.2436 10.945
1 19.0378 24.4395 10.9476
1 20.6362 25.2378 11.7298
1 21.4299 24.4441 11.7298
1 21.4307 25.2487 10.9309
1 20.6481 24.429 10.9433
1 22.2236 25.2378 11.7298
1 23.0173 24.4441 11.7298
1 22.99 25.227 10.9256
1 22.2176 24.4334 10.9017
1 23.811 25.2378 11.7298
1 24.6047 24.4441 11.7298
1 24.5909 25.2394 10.9282
1 23.8176 24.4308 10.9384
1 25.3984 25.2378 11.7298
1 26.1921 24.4441 11.7298
1 26.2065 25.2185 10.9022
1 25.4004 24.4429 10.9474
1 26.9858 25.2378 11.7298
1 27.7795 24.4441 11.7298
1 27.7717 25.2363 10.9305
1 26.9678 24.4341 10.9405
1 28.5732 25.2378 11.7298
1 29.3669 24.4441 11.7298
1 29.311 25.2404 10.9148
1 28.5459 24.464 10.902
1 30 23.6504 11.7298
1 0.793701 22.8567 11.7298
1 0.823752 23.6665 10.9197
1 0.0885656 22.8661 10.9236
1 1.5874 23.6504 11.7298
1 2.3811 22.8567 11.7298
1 2.39641 23.6499 10.9521
1 1.6117 22.8714 10.9654
1 3.1748 23.6504 11.7298
1 3.9685 22.8567 11.7298
1 3.95905 23.6396 10.946
1 3.19664 22.8555 10.9759
1 4.7622 23.6504 11.7298
1 5.5559 22.8567 11.7298
1 5.5634 23.6337 10.9246
1 4.76485 22.8566 10.9697
1 6.3496 23.6504 11.7298
1 7.1433 22.8567 11.7298
1 7.16356 23.6747 10.9328
1 6.36561 22.8574 10.9617
1 7.93701 23.6504 11.7298
1 8.73071 22.8567 11.7298
1 8.72499 23.6642 10.9376
1 7.93162 22.8473 10.9464
1 9.52441 23.6504 11.7298
1 10.3181 22.8567 11.7298
1 10.2982 23.656 10.9347
1 9.53605 22.8632 10.9313
1 11.1118 23.6504 11.7298
1 11.9055 22.8567 11.7298
1 11.9275 23.6501 10.9404
1 11.1124 22.8844 10.9229
1 12.6992 23.6504 11.7298
1 13.4929 22.8567 11.7298
1 13.5068 23.6297 10.9376
1 12.6905 22.8604 10.9206
1 14.2866 23.6504 11.7298
1 15.0803 22.8567 11.7298
1 15.0785 23.6659 10.9339
1 14.2806 22.8474 10.9453
1 15.874 23.6504 11.7298
1 16.6677 22.8567 11.7298
1 16.6858 23.6457 10.9363
1 15.8738 22.8522 10.9428
1 17.4614 23.6504 11.7298
1 18.2551 22.8567 11.7298
1 18.2326 23.6571 10.9659
1 17.4466 22.8586 10.9582
1 19.0488 23.6504 11.7298
1 19.8425 22.8567 11.7298
1 19.8266 23.6441 10.9391
1 19.0512 22.8522 10.9408
1 20.6362 23.6504 11.7298
1 21.4299 22.8567 11.7298
1 21.4124 23.6246 10.9514
1 20.6094 22.8459 10.9297
1 22.2236 23.6504 11.7298
1 23.0173 22.8567 11.7298
1 23.019 23.6547 10.9263
1 22.2375 22.8543 10.9226
1 23.811 23.6504 11.7298
1 24.6047 22.8567 11.7298
1 24.5985 23.6411 10.9275
1 23.7892 22.8545 10.9422
1 25.3984 23.6504 11.7298
1 26.1921 22.8567 11.7298
1 26.1855 23.6745 10.9395
1 25.3828 22.8628 10.9606
1 26.9858 23.6504 11.7298
1 27.7795 22.8567 11.7298
1 27.7606 23.6466 10.9277
1 26.9534 22.8707 10.9387
1 28.5732 23.6504 11.7298
1 29.3669 22.8567 11.7298
1 29.316 23.6568 10.917
1 28.5196 22.8645 10.9376
1 30 22.063 11.7298
1 0.793701 21.2693 11.7298
1 0.825154 22.0723 10.9298
1 0.0760287 21.2612 10.9232
1 1.5874 22.063 11.7298
1 2.3811 21.2693 11.7298
1 2.38424 22.0827 10.9472
1 1.61091 21.2807 10.9698
1 3.1748 22.063 11.7298
1 3.9685 21.2693 11.7298
1 3.97863 22.0512 10.9416
1 3.17666 21.2969 10.9515
1 4.7622 22.063 11.7298
1 5.5559 21.2693 11.7298
1 5.56818 22.0944 10.9362
1 4.79187 21.3049 10.9442
1 6.3496 22.063 11.7298
1 7.1433 21.2693 11.7298
1 7.12563 22.0669 10.9526
1 6.34549 21.2644 10.9416
1 7.93701 22.063 11.7298
1 8.73071 21.2693 11.7298
1 8.70559 22.0615 10.9527
1 7.93752 21.2581 10.9651
1 9.52441 22.063 11.7298
1 10.3181 21.2693 11.7298
1 10.327 22.0714 10.9681
1 9.52764 21.261 10.9197
1 11.1118 22.063 11.7298
1 11.9055 21.2693 11.7298
1 11.9263 22.0568 10.9371
1 11.1583 21.2479 10.9175
1 12.6992 22.063 11.7298
1 13.4929 21.2693 11.7298
1 13.4897 22.043 10.9171
1 12.7111 21.2567 10.93
1 14.2866 22.063 11.7298
1 15.0803 21.2693 11.7298
1 15.079 22.0787 10.9355
1 14.2925 21.2513 10.9312
1 15.874 22.063 11.7298
1 16.6677 21.2693 11.7298
1 16.6661 22.0768 10.9152
1 15.8921 21.2775 10.974
1 17.4614 22.063 11.7298
1 18.2551 21.2693 11.7298
1 18.2518 22.0525 10.9589
1 17.403 21.2947 10.9364
1 19.0488 22.063 11.7298
1 19.8425 21.2693 11.7298
1 19.8591 22.0724 10.9516
1 19.0507 21.2995 10.9534
1 20.6362 22.063 11.7298
1 21.4299 21.2693 11.7298
1 21.4264 22.066 10.9512
1 20.6584 21.2688 10.9294
1 22.2236 22.063 11.7298
1 23.0173 21.2693 11.7298
1 23.0124 22.0651 10.9061
1 22.2331 21.2553 10.9374
1 23.811 22.063 11.7298
1 24.6047 21.2693 11.7298
1 24.5768 22.0721 10.9187
1 23.8074 21.2416 10.9391
1 25.3984 22.063 11.7298
1 26.1921 21.2693 11.7298
1 26.1918 22.0732 10.9323
1 25.3831 21.2776 10.902
1 26.9858 22.063 11.7298
1 27.7795 21.2693 11.7298
1 27.7554 22.0444 10.9545
1 26.9501 21.2936 10.9245
1 28.5732 22.063 11.7298
1 29.3669 21.2693 11.7298
1 29.3112 22.0563 10.923
1 28.5259 21.265 10.9076
1 30 20.4756 11.7298
1 0.793701 19.6819 11.7298
1 0.808549 20.5022 10.9357
1 0.0690239 19.7075 10.9297
1 1.5874 20.4756 11.7298
1 2.3811 19.6819 11.7298
1 2.35987 20.5027 10.9339
1 1.58394 19.6918 10.9341
1 3.1748 20.4756 11.7298
1 3.9685 19.6819 11.7298
1 3.98425 20.5013 10.9622
1 3.18784 19.7076 10.9481
1 4.7622 20.4756 11.7298
1 5.5559 19.6819 11.7298
1 5.56699 20.4687 10.9593
1 4.76281 19.6673 10.9653
1 6.3496 20.4756 11.7298
1 7.1433 19.6819 11.7298
1 7.14482 20.4548 10.9525
1 6.3606 19.6534 10.9406
1 7.93701 20.4756 11.7298
1 8.73071 19.6819 11.7298
1 8.72432 20.4672 10.961
1 7.93772 19.6874 10.9192
1 9.52441 20.4756 11.7298
1 10.3181 19.6819 11.7298
1 10.3265 20.4776 10.959
1 9.53771 19.6918 10.9276
1 11.1118 20.4756 11.7298
1 11.9055 19.6819 11.7298
1 11.9354 20.4755 10.9442
1 11.1236 19.6681 10.9538
1 12.6992 20.4756 11.7298
1 13.4929 19.6819 11.7298
1 13.5067 20.4714 10.9243
1 12.7125 19.6748 10.9269
1 14.2866 20.4756 11.7298
1 15.0803 19.6819 11.7298
1 15.0911 20.4698 10.9571
1 14.2916 19.6778 10.9539
1 15.874 20.4756 11.7298
1 16.6677 19.6819 11.7298
1 16.6859 20.4835 10.9161
1 15.8626 19.6759 10.9431
1 17.4614 20.4756 11.7298
1 18.2551 19.6819 11.7298
1 18.2432 20.5015 10.9133
1 17.4429 19.6964 10.9436
1 19.0488 20.4756 11.7298
1 19.8425 19.6819 11.7298
1 19.8594 20.4864 10.9272
1 19.031 19.6821 10.9538
1 20.6362 20.4756 11.7298
1 21.4299 19.6819 11.7298
1 21.419 20.4596 10.9457
1 20.642 19.6919 10.9235
1 22.2236 20.4756 11.7298
1 23.0173 19.6819 11.7298
1 23.0293 20.476 10.9503
1 22.2415 19.6763 10.9058
1 23.811 20.4756 11.7298
1 24.6047 19.6819 11.7298
1 24.6101 20.4577 10.9446
1 23.7867 19.6966 10.9325
1 25.3984 20.4756 11.7298
1 26.1921 19.6819 11.7298
1 26.1493 20.4706 10.9259
1 25.3674 19.6825 10.9318
1 26.9858 20.4756 11.7298
1 27.7795 19.6819 11.7298
1 27.7412 20.4871 10.9451
1 26.9523 19.6824 10.9378
1 28.5732 20.4756 11.7298
1 29.3669 19.6819 11.7298
1 29.2834 20.4649 10.899
1 28.5515 19.6723 10.9617
1 30 18.8882 11.7298
1 0.793701 18.0945 11.7298
1 0.839974 18.8832 10.9399
1 0.0686415 18.0961 10.911
1 1.5874 18.8882 11.7298
1 2.3811 18.0945 11.7298
1 2.39479 18.8985 10.9517
1 1.61271 18.0778 10.9147
1 3.1748 18.8882 11.7298
1 3.9685 18.0945 11.7298
1 3.97046 18.884 10.9252
1 3.19144 18.1145 10.9487
1 4.7622 18.8882 11.7298
1 5.5559 18.0945 11.7298
1 5.56367 18.8719 10.9402
1 4.78843 18.097 10.9386
1 6.3496 18.8882 11.7298
1 7.1433 18.0945 11.7298
1 7.15019 18.8902 10.9612
1 6.36147 18.1151 10.9566
1 7.93701 18.8882 11.7298
1 8.73071 18.0945 11.7298
1 8.74962 18.8978 10.9252
1 7.95779 18.0955 10.9445
1 9.52441 18.8882 11.7298
1 10.3181 18.0945 11.7298
1 10.3154 18.9076 10.941
1 9.54565 18.1212 10.9456
1 11.1118 18.8882 11.7298
1 11.9055 18.0945 11.7298
1 11.9021 18.8791 10.9334
1 11.1255 18.0756 10.9277
1 12.6992 18.8882 11.7298
1 13.4929 18.0945 11.7298
1 13.5068 18.889 10.9205
1 12.7079 18.1029 10.9248
1 14.2866 18.8882 11.7298
1 15.0803 18.0945 11.7298
1 15.0812 18.8528 10.9191
1 14.2783 18.0716 10.9089
1 15.874 18.8882 11.7298
1 16.6677 18.0945 11.7298
1 16.6819 18.8875 10.8936
1 15.8539 18.0891 10.9369
1 17.4614 18.8882 11.7298
1 18.2551 18.0945 11.7298
1 18.2399 18.8917 10.9152
1 17.4432 18.0942 10.9245
1 19.0488 18.8882 11.7298
1 19.8425 18.0945 11.7298
1 19.8549 18.8814 10.9174
1 19.0498 18.1153 10.9176
1 20.6362 18.8882 11.7298
1 21.4299 18.0945 11.7298
1 21.4251 18.8848 10.9435
1 20.6375 18.1239 10.9197
1 22.2236 18.8882 11.7298
1 23.0173 18.0945 11.7298
1 23.0024 18.898 10.9529
1 22.236 18.0905 10.9275
1 23.811 18.8882 11.7298
1 24.6047 18.0945 11.7298
1 24.5782 18.9042 10.9363
1 23.8067 18.0876 10.9187
1 25.3984 18.8882 11.7298
1 26.1921 18.0945 11.7298
1 26.1775 18.8817 10.9497
1 25.3653 18.0808 10.9475
1 26.9858 18.8882 11.7298
1 27.7795 18.0945 11.7298
1 27.7823 18.903 10.9426
1 26.9681 18.0793 10.9224
1 28.5732 18.8882 11.7298
1 29.3669 18.0945 11.7298
1 29.3179 18.9037 10.9029
1 28.5474 18.088 10.9296
1 30 17.3008 11.7298
1 0.793701 16.5071 11.7298
1 0.826675 17.2874 10.911
1 0.111405 16.5093 10.9007
1 1.5874 17.3008 11.7298
1 2.3811 16.5071 11.7298
1 2.40637 17.2866 10.9305
1 1.62431 16.4975 10.955
1 3.1748 17.3008 11.7298
1 3.9685 16.5071 11.7298
1 4.02602 17.3199 10.9597
1 3.20372 16.5129 10.95
1 4.7622 17.3008 11.7298
1 5.5559 16.5071 11.7298
1 5.5526 17.2982 10.925
1 4.7767 16.4674 10.9105
1 6.3496 17.3008 11.7298
1 7.1433 16.5071 11.7298
1 7.13173 17.2938 10.9433
1 6.35273 16.4943 10.9239
1 7.93701 17.3008 11.7298
1 8.73071 16.5071 11.7298
1 8.76075 17.3283 10.9191
1 7.91942 16.4926 10.9457
1 9.52441 17.3008 11.7298
1 10.3181 16.5071 11.7298
1 10.3171 17.3177 10.9474
1 9.52405 16.5168 10.9478
1 11.1118 17.3008 11.7298
1 11.9055 16.5071 11.7298
1 11.9165 17.2895 10.928
1 11.1345 16.5246 10.9265
1 12.6992 17.3008 11.7298
1 13.4929 16.5071 11.7298
1 13.484 17.2893 10.9297
1 12.6922 16.5061 10.9308
1 14.2866 17.3008 11.7298
1 15.0803 16.5071 11.7298
1 15.0948 17.3046 10.9064
1 14.2813 16.5085 10.9259
1 15.874 17.3008 11.7298
1 16.6677 16.5071 11.7298
1 16.6902 17.3136 10.9476
1 15.899 16.5231 10.9126
1 17.4614 17.3008 11.7298
1 18.2551 16.5071 11.7298
1 18.2777 17.3474 10.9536
1 17.4898 16.4879 10.9438
1 19.0488 17.3008 11.7298
1 19.8425 16.5071 11.7298
1 19.8475 17.2997 10.9268
1 19.0576 16.5142 10.9363
1 20.6362 17.3008 11.7298
1 21.4299 16.5071 11.7298
1 21.4624 17.2855 10.9348
1 20.6511 16.4849 10.9073
1 22.2236 17.3008 11.7298
1 23.0173 16.5071 11.7298
1 23.0234 17.3141 10.9351
1 22.2401 16.5117 10.9254
1 23.811 17.3008 11.7298
1 24.6047 16.5071 11.7298
1 24.6111 17.2924 10.9583
1 23.8075 16.5309 10.9306
1 25.3984 17.3008 11.7298
1 26.1921 16.5071 11.7298
1 26.1777 17.2854 10.9292
1 25.419 16.4935 10.9557
1 26.9858 17.3008 11.7298
1 27.7795 16.5071 11.7298
1 27.7582 17.3016 10.9296
1 26.9618 16.5061 10.932
1 28.5732 17.3008 11.7298
1 29.3669 16.5071 11.7298
1 29.2932 17.2723 10.8997
1 28.5443 16.476 10.9266
1 30 15.7134 11.7298
1 0.793701 14.9197 11.7298
1 0.855979 15.6838 10.912
1 0.0645461 14.901 10.9151
1 1.5874 15.7134 11.7298
1 2.3811 14.9197 11.7298
1 2.40964 15.7198 10.9471
1 1.60334 14.917 10.954
1 3.1748 15.7134 11.7298
1 3.9685 14.9197 11.7298
1 3.97273 15.7267 10.938
1 3.20335 14.9248 10.9399
1 4.7622 15.7134 11.7298
1 5.5559 14.9197 11.7298
1 5.56678 15.6891 10.9408
1 4.78936 14.926 10.9528
1 6.3496 15.7134 11.7298
1 7.1433 14.9197 11.7298
1 7.16306 15.6993 10.9513
1 6.33718 14.9047 10.9573
1 7.93701 15.7134 11.7298
1 8.73071 14.9197 11.7298
1 8.74158 15.7053 10.9188
1 7.93152 14.8977 10.9316
1 9.52441 15.7134 11.7298
1 10.3181 14.9197 11.7298
1 10.3343 15.7345 10.9341
1 9.52697 14.9002 10.9288
1 11.1118 15.7134 11.7298
1 11.9055 14.9197 11.7298
1 11.8839 15.7241 10.9107
1 11.1305 14.9216 10.9265
1 12.6992 15.7134 11.7298
1 13.4929 14.9197 11.7298
1 13.4643 15.713 10.9411
1 12.6984 14.9139 10.9412
1 14.2866 15.7134 11.7298
1 15.0803 14.9197 11.7298
1 15.0687 15.7114 10.9484
1 14.2841 14.9327 10.957
1 15.874 15.7134 11.7298
1 16.6677 14.9197 11.7298
1 16.6586 15.7056 10.9503
1 15.8865 14.8858 10.9461
1 17.4614 15.7134 11.7298
1 18.2551 14.9197 11.7298
1 18.2671 15.6749 10.9535
1 17.4627 14.9129 10.9441
1 19.0488 15.7134 11.7298
1 19.8425 14.9197 11.7298
1 19.8599 15.7401 10.9259
1 19.063 14.9401 10.9205
1 20.6362 15.7134 11.7298
1 21.4299 14.9197 11.7298
1 21.4571 15.723 10.913
1 20.6716 14.9216 10.9528
1 22.2236 15.7134 11.7298
1 23.0173 14.9197 11.7298
1 23.0115 15.7213 10.9328
1 22.2467 14.908 10.9269
1 23.811 15.7134 11.7298
1 24.6047 14.9197 11.7298
1 24.5991 15.7191 10.9322
1 23.8137 14.9416 10.947
1 25.3984 15.7134 11.7298
1 26.1921 14.9197 11.7298
1 26.1799 15.7036 10.9208
1 25.4048 14.8953 10.9539
1 26.9858 15.7134 11.7298
1 27.7795 14.9197 11.7298
1 27.7599 15.7121 10.9222
1 26.9714 14.9013 10.9246
1 28.5732 15.7134 11.7298
1 29.3669 14.9197 11.7298
1 29.309 15.7113 10.9092
1 28.5612 14.9019 10.8948
1 30 14.126 11.7298
1 0.793701 13.3323 11.7298
1 0.813565 14.1199 10.9464
1 0.0658631 13.3066 10.9118
1 1.5874 14.126 11.7298
1 2.3811 13.3323 11.7298
1 2.37487 14.1425 10.9388
1 1.60445 13.3403 10.944
1 3.1748 14.126 11.7298
1 3.9685 13.3323 11.7298
1 3.99147 14.1293 10.8915
1 3.19295 13.3485 10.9486
1 4.7622 14.126 11.7298
1 5.5559 13.3323 11.7298
1 5.5737 14.1216 10.9554
1 4.76687 13.3557 10.9365
1 6.3496 14.126 11.7298
1 7.1433 13.3323 11.7298
1 7.11236 14.1255 10.9369
1 6.346 13.3553 10.9553
1 7.93701 14.126 11.7298
1 8.73071 13.3323 11.7298
1 8.72803 14.1048 10.9458
1 7.92782 13.3287 10.9424
1 9.52441 14.126 11.7298
1 10.3181 13.3323 11.7298
1 10.3334 14.1049 10.9438
1 9.50866 13.3448 10.9232
1 11.1118 14.126 11.7298
1 11.9055 13.3323 11.7298
1 11.8937 14.1273 10.9473
1 11.0967 13.3326 10.9297
1 12.6992 14.126 11.7298
1 13.4929 13.3323 11.7298
1 13.5002 14.1302 10.9454
1 12.6982 13.3492 10.9419
1 14.2866 14.126 11.7298
1 15.0803 13.3323 11.7298
1 15.0701 14.1345 10.935
1 14.2893 13.3475 10.922
1 15.874 14.126 11.7298
1 16.6677 13.3323 11.7298
1 16.6859 14.1327 10.9353
1 15.8478 13.3314 10.9416
1 17.4614 14.126 11.7298
1 18.2551 13.3323 11.7298
1 18.2914 14.1258 10.9357
1 17.4622 13.3417 10.9439
1 19.0488 14.126 11.7298
1 19.8425 13.3323 11.7298
1 19.8481 14.1259 10.9352
1 19.0421 13.3192 10.9232
1 20.6362 14.126 11.7298
1 21.4299 13.3323 11.7298
1 21.4372 14.1229 10.9327
1 20.6329 13.349 10.9402
1 22.2236 14.126 11.7298
1 23.0173 13.3323 11.7298
1 23.0202 14.1219 10.9548
1 22.225 13.2994 10.9206
1 23.811 14.126 11.7298
1 24.6047 13.3323 11.7298
1 24.5872 14.137 10.9588
1 23.8276 13.3475 10.9131
1 25.3984 14.126 11.7298
1 26.1921 13.3323 11.7298
1 26.1909 14.132 10.9203
1 25.3886 13.3364 10.9432
1 26.9858 14.126 11.7298
1 27.7795 13.3323 11.7298
1 27.7899 14.1184 10.9266
1 26.9615 13.3391 10.9387
1 28.5732 14.126 11.7298
1 29.3669 13.3323 11.7298
1 29.2945 14.1267 10.8972
1 28.5333 13.3107 10.9285
1 30 12.5386 11.7298
1 0.793701 11.7449 11.7298
1 0.834843 12.5279 10.9301
1 0.0439768 11.7557 10.9084
1 1.5874 12.5386 11.7298
1 2.3811 11.7449 11.7298
1 2.39459 12.5348 10.9526
1 1.57598 11.7652 10.9587
1 3.1748 12.5386 11.7298
1 3.9685 11.7449 11.7298
1 3.98345 12.5309 10.9389
1 3.19235 11.7568 10.9193
1 4.7622 12.5386 11.7298
1 5.5559 11.7449 11.7298
1 5.56516 12.551 10.9257
1 4.75682 11.7523 10.9477
1 6.3496 12.5386 11.7298
1 7.1433 11.7449 11.7298
1 7.14278 12.5302 10.9352
1 6.3619 11.726 10.9634
1 7.93701 12.5386 11.7298
1 8.73071 11.7449 11.7298
1 8.73407 12.5361 10.9288
1 7.94067 11.7438 10.9358
1 9.52441 12.5386 11.7298
1 10.3181 11.7449 11.7298
1 10.317 12.5445 10.92
1 9.518 11.7456 10.936
1 11.1118 12.5386 11.7298
1 11.9055 11.7449 11.7298
1 11.9534 12.5549 10.9346
1 11.108 11.7502 10.9533
1 12.6992 12.5386 11.7298
1 13.4929 11.7449 11.7298
1 13.4961 12.535 10.9342
1 12.719 11.7426 10.9332
1 14.2866 12.5386 11.7298
1 15.0803 11.7449 11.7298
1 15.108 12.5387 10.9385
1 14.3125 11.7457 10.9393
1 15.874 12.5386 11.7298
1 16.6677 11.7449 11.7298
1 16.6647 12.5434 10.933
1 15.8774 11.7332 10.9412
1 17.4614 12.5386 11.7298
1 18.2551 11.7449 11.7298
1 18.2486 12.5357 10.943
1 17.4466 11.7182 10.943
1 19.0488 12.5386 11.7298
1 19.8425 11.7449 11.7298
1 19.8498 12.5295 10.9321
1 19.0319 11.7154 10.9526
1 20.6362 12.5386 11.7298
1 21.4299 11.7449 11.7298
1 21.4177 12.528 10.9204
1 20.6208 11.7516 10.9262
1 22.2236 12.5386 11.7298
1 23.0173 11.7449 11.7298
1 23.0225 12.5495 10.9302
1 22.2134 11.7462 10.9286
1 23.811 12.5386 11.7298
1 24.6047 11.7449 11.7298
1 24.6085 12.514 10.9527
1 23.8015 11.736 10.9478
1 25.3984 12.5386 11.7298
1 26.1921 11.7449 11.7298
1 26.1715 12.5477 10.9515
1 25.393 11.7397 10.9455
1 26.9858 12.5386 11.7298
1 27.7795 11.7449 11.7298
1 27.7444 12.5407 10.925
1 26.9811 11.7689 10.9425
1 28.5732 12.5386 11.7298
1 29.3669 11.7449 11.7298
1 29.3086 12.5275 10.8967
1 28.5548 11.7389 10.9214
1 30 10.9512 11.7298
1 0.793701 10.1575 11.7298
1 0.805943 10.946 10.9397
1 0.0586366 10.1617 10.8838
1 1.5874 10.9512 11.7298
1 2.3811 10.1575 11.7298
1 2.3718 10.9438 10.9504
1 1.5924 10.1413 10.9588
1 3.1748 10.9512 11.7298
1 3.9685 10.1575 11.7298
1 3.97842 10.936 10.9461
1 3.1621 10.1687 10.9366
1 4.7622 10.9512 11.7298
1 5.5559 10.1575 11.7298
1 5.54837 10.9586 10.934
1 4.77493 10.1501 10.9397
1 6.3496 10.9512 11.7298
1 7.1433 10.1575 11.7298
1 7.16418 10.9249 10.9466
1 6.31851 10.158 10.9275
1 7.93701 10.9512 11.7298
1 8.73071 10.1575 11.7298
1 8.74036 10.948 10.9084
1 7.95438 10.1732 10.9083
1 9.52441 10.9512 11.7298
1 10.3181 10.1575 11.7298
1 10.3124 10.9358 10.9268
1 9.50681 10.1525 10.9242
1 11.1118 10.9512 11.7298
1 11.9055 10.1575 11.7298
1 11.9041 10.9516 10.9203
1 11.117 10.1459 10.9249
1 12.6992 10.9512 11.7298
1 13.4929 10.1575 11.7298
1 13.5315 10.9671 10.9372
1 12.7018 10.1783 10.9463
1 14.2866 10.9512 11.7298
1 15.0803 10.1575 11.7298
1 15.0894 10.9275 10.9405
1 14.2745 10.131 10.9365
1 15.874 10.9512 11.7298
1 16.6677 10.1575 11.7298
1 16.6749 10.935 10.9731
1 15.8683 10.1523 10.9365
1 17.4614 10.9512 11.7298
1 18.2551 10.1575 11.7298
1 18.252 10.9264 10.9687
1 17.4713 10.1369 10.9451
1 19.0488 10.9512 11.7298
1 19.8425 10.1575 11.7298
1 19.8682 10.9378 10.9705
1 19.0508 10.1415 10.9291
1 20.6362 10.9512 11.7298
1 21.4299 10.1575 11.7298
1 21.4106 10.9553 10.927
1 20.6528 10.1473 10.9577
1 22.2236 10.9512 11.7298
1 23.0173 10.1575 11.7298
1 23.0211 10.9751 10.9225
1 22.2304 10.172 10.9384
1 23.811 10.9512 11.7298
1 24.6047 10.1575 11.7298
1 24.6073 10.9646 10.9399
1 23.8019 10.1764 10.9371
1 25.3984 10.9512 11.7298
1 26.1921 10.1575 11.7298
1 26.2053 10.9521 10.9311
1 25.3954 10.1593 10.9428
1 26.9858 10.9512 11.7298
1 27.7795 10.1575 11.7298
1 27.7497 10.9546 10.9218
1 26.9666 10.1517 10.9222
1 28.5732 10.9512 11.7298
1 29.3669 10.1575 11.7298
1 29.2958 10.947 10.9075
1 28.5237 10.1676 10.9448
1 30 9.36379 11.7298
1 0.793701 8.57009 11.7298
1 0.821427 9.38511 10.9198
1 0.0372947 8.58855 10.9247
1 1.5874 9.36379 11.7298
1 2.3811 8.57009 11.7298
1 2.38152 9.33714 10.9579
1 1.59277 8.55853 10.9266
1 3.1748 9.36379 11.7298
1 3.9685 8.57009 11.7298
1 3.9851 9.36144 10.9488
1 3.19367 8.56035 10.9446
1 4.7622 9.36379 11.7298
1 5.5559 8.57009 11.7298
1 5.56534 9.3655 10.9306
1 4.75389 8.55918 10.937
1 6.3496 9.36379 11.7298
1 7.1433 8.57009 11.7298
1 7.12379 9.39139 10.9354
1 6.35138 8.57326 10.9487
1 7.93701 9.36379 11.7298
1 8.73071 8.57009 11.7298
1 8.71456 9.35918 10.9344
1 7.9264 8.55399 10.9363
1 9.52441 9.36379 11.7298
1 10.3181 8.57009 11.7298
1 10.3034 9.36136 10.9297
1 9.52808 8.58163 10.9318
1 11.1118 9.36379 11.7298
1 11.9055 8.57009 11.7298
1 11.9008 9.35716 10.9277
1 11.1209 8.56404 10.9305
1 12.6992 9.36379 11.7298
1 13.4929 8.57009 11.7298
1 13.4882 9.36792 10.9721
1 12.679 8.58073 10.938
1 14.2866 9.36379 11.7298
1 15.0803 8.57009 11.7298
1 15.0744 9.35627 10.9496
1 14.2896 8.60353 10.9537
1 15.874 9.36379 11.7298
1 16.6677 8.57009 11.7298
1 16.6564 9.36296 10.961
1 15.8721 8.57897 10.9537
1 17.4614 9.36379 11.7298
1 18.2551 8.57009 11.7298
1 18.255 9.33714 10.932
1 17.4641 8.55783 10.9143
1 19.0488 9.36379 11.7298
1 19.8425 8.57009 11.7298
1 19.8367 9.35984 10.9489
1 19.0301 8.57482 10.9398
1 20.6362 9.36379 11.7298
1 21.4299 8.57009 11.7298
1 21.4521 9.36639 10.9388
1 20.6419 8.5757 10.9183
1 22.2236 9.36379 11.7298
1 23.0173 8.57009 11.7298
1 23.0097 9.36632 10.9381
1 22.1987 8.54839 10.9374
1 23.811 9.36379 11.7298
1 24.6047 8.57009 11.7298
1 24.5941 9.36825 10.9439
1 23.7993 8.57199 10.9341
1 25.3984 9.36379 11.7298
1 26.1921 8.57009 11.7298
1 26.1919 9.34909 10.9345
1 25.3878 8.5912 10.9392
1 26.9858 9.36379 11.7298
1 27.7795 8.57009 11.7298
1 27.7387 9.36874 10.8905
1 26.9795 8.57315 10.9524
1 28.5732 9.36379 11.7298
1 29.3669 8.57009 11.7298
1 29.2807 9.36742 10.8886
1 28.5215 8.56132 10.9225
1 30 7.77639 11.7298
1 0.793701 6.98268 11.7298
1 0.820431 7.76869 10.9348
1 0.0255835 6.99299 10.8968
1 1.5874 7.77639 11.7298
1 2.3811 6.98268 11.7298
1 2.40053 7.76874 10.9118
1 1.61619 6.96889 10.9518
1 3.1748 7.77639 11.7298
1 3.9685 6.98268 11.7298
1 3.98206 7.75953 10.936
1 3.19194 6.98313 10.9321
1 4.7622 7.77639 11.7298
1 5.5559 6.98268 11.7298
1 5.5745 7.76104 10.9385
1 4.76693 7.00628 10.9449
1 6.3496 7.77639 11.7298
1 7.1433 6.98268 11.7298
1 7.14622 7.77332 10.9376
1 6.32879 6.99357 10.9414
1 7.93701 7.77639 11.7298
1 8.73071 6.98268 11.7298
1 8.73093 7.76527 10.9473
1 7.94689 6.98417 10.9249
1 9.52441 7.77639 11.7298
1 10.3181 6.98268 11.7298
1 10.3487 7.77614 10.9286
1 9.54157 7.00255 10.9202
1 11.1118 7.77639 11.7298
1 11.9055 6.98268 11.7298
1 11.9254 7.78786 10.9503
1 11.1336 6.98822 10.9483
1 12.6992 7.77639 11.7298
1 13.4929 6.98268 11.7298
1 13.4959 7.80466 10.97
1 12.6978 6.98657 10.9425
1 14.2866 7.77639 11.7298
1 15.0803 6.98268 11.7298
1 15.0811 7.79804 10.949
1 14.2828 6.99075 10.9594
1 15.874 7.77639 11.7298
1 16.6677 6.98268 11.7298
1 16.6568 7.7876 10.9449
1 15.8528 6.98467 10.9374
1 17.4614 7.77639 11.7298
1 18.2551 6.98268 11.7298
1 18.2549 7.76128 10.9317
1 17.4605 6.97696 10.9587
1 19.0488 7.77639 11.7298
1 19.8425 6.98268 11.7298
1 19.8427 7.77748 10.9322
1 19.0664 6.97394 10.9565
1 20.6362 7.77639 11.7298
1 21.4299 6.98268 11.7298
1 21.4349 7.77638 10.9354
1 20.6487 6.97154 10.9306
1 22.2236 7.77639 11.7298
1 23.0173 6.98268 11.7298
1 22.9935 7.78194 10.9499
1 22.2228 6.98101 10.9472
1 23.811 7.77639 11.7298
1 24.6047 6.98268 11.7298
1 24.6074 7.77331 10.936
1 23.7943 7.00309 10.942
1 25.3984 7.77639 11.7298
1 26.1921 6.98268 11.7298
1 26.1937 7.78354 10.9325
1 25.4005 6.9693 10.9438
1 26.9858 7.77639 11.7298
1 27.7795 6.98268 11.7298
1 27.7846 7.76271 10.9275
1 26.9853 6.97306 10.9523
1 28.5732 7.77639 11.7298
1 29.3669 6.98268 11.7298
1 29.3031 7.79024 10.8954
1 28.5529 6.9499 10.9145
1 30 6.18898 11.7298
1 0.793701 5.39528 11.7298
1 0.826494 6.19099 10.9324
1 0.0581783 5.42104 10.902
1 1.5874 6.18898 11.7298
1 2.3811 5.39528 11.7298
1 2.39573 6.14541 10.9366
1 1.62383 5.38843 10.934
1 3.1748 6.18898 11.7298
1 3.9685 5.39528 11.7298
1 3.97426 6.20822 10.9521
1 3.19737 5.3815 10.9312
1 4.7622 6.18898 11.7298
1 5.5559 5.39528 11.7298
1 5.56373 6.18622 10.9582
1 4.77362 5.42827 10.9322
1 6.3496 6.18898 11.7298
1 7.1433 5.39528 11.7298
1 7.15827 6.20877 10.9525
1 6.38213 5.41256 10.9515
1 7.93701 6.18898 11.7298
1 8.73071 5.39528 11.7298
1 8.74476 6.1949 10.9271
1 7.96093 5.39834 10.9503
1 9.52441 6.18898 11.7298