9376
Atoms. Timestep: 4000000
1 7.5 3.55271e-15 10.642
1 8.2937 29.2063 10.642
1 8.3092 29.9241 9.80629
1 7.58397 29.1716 9.80913
1 9.0874 3.55271e-15 10.642
1 9.8811 29.2063 10.642
1 9.88009 29.9497 9.79221
1 9.10059 29.1635 9.85929
1 10.6748 3.55271e-15 10.642
1 11.4685 29.2063 10.642
1 11.4852 29.9442 9.8011
1 10.6525 29.1921 9.85972
1 12.2622 3.55271e-15 10.642
1 13.0559 29.2063 10.642
1 13.0341 29.9339 9.81969
1 12.2614 29.1875 9.8356
1 13.8496 3.55271e-15 10.642
1 14.6433 29.2063 10.642
1 14.6469 29.9439 9.8207
1 13.8428 29.1795 9.84239
1 15.437 3.55271e-15 10.642
1 16.2307 29.2063 10.642
1 16.2303 29.9225 9.81554
1 15.4262 29.167 9.83635
1 17.0244 3.55271e-15 10.642
1 17.8181 29.2063 10.642
1 17.8132 29.9363 9.80848
1 17.0262 29.1554 9.82543
1 18.6118 3.55271e-15 10.642
1 19.4055 29.2063 10.642
1 19.3914 29.9383 9.84337
1 18.6152 29.1833 9.84108
1 20.1992 3.55271e-15 10.642
1 20.9929 29.2063 10.642
1 21.011 29.9497 9.81224
1 20.2049 29.1767 9.84061
1 21.7866 3.55271e-15 10.642
1 22.5803 29.2063 10.642
1 22.5856 29.9342 9.83145
1 21.7959 29.1903 9.83442
1 23.374 3.55271e-15 10.642
1 24.1677 29.2063 10.642
1 24.1737 29.9101 9.82677
1 23.3669 29.1805 9.82505
1 24.9614 3.55271e-15 10.642
1 25.7551 29.2063 10.642
1 25.7771 29.9363 9.79055
1 24.9718 29.1572 9.83384
1 26.5488 3.55271e-15 10.642
1 27.3425 29.2063 10.642
1 27.3479 29.905 9.80752
1 26.5504 29.1635 9.83439
1 28.1362 3.55271e-15 10.642
1 28.9299 29.2063 10.642
1 28.946 29.9427 9.81854
1 28.1519 29.1894 9.84558
1 29.7236 3.55271e-15 10.642
1 0.517315 29.2063 10.642
1 0.527493 29.9288 9.80505
1 29.7359 29.1969 9.82382
1 1.31102 3.55271e-15 10.642
1 2.10472 29.2063 10.642
1 2.10477 29.9072 9.8147
1 1.33252 29.1774 9.83917
1 2.89842 3.55271e-15 10.642
1 3.69212 29.2063 10.642
1 3.66592 29.9034 9.79164
1 2.86289 29.1647 9.88236
1 4.48582 3.55271e-15 10.642
1 5.27952 29.2063 10.642
1 5.26073 29.94 9.82082
1 4.48332 29.1944 9.83211
1 6.07322 3.55271e-15 10.642
1 6.86692 29.2063 10.642
1 6.80885 29.923 9.7903
1 6.04197 29.1869 9.81933
1 7.5 28.4126 10.642
1 8.2937 27.6189 10.642
1 8.33068 28.4117 9.84513
1 7.57102 27.6305 9.84065
1 9.0874 28.4126 10.642
1 9.8811 27.6189 10.642
1 9.8929 28.3974 9.84364
1 9.10776 27.6126 9.8346
1 10.6748 28.4126 10.642
1 11.4685 27.6189 10.642
1 11.4891 28.397 9.84231
1 10.7041 27.6206 9.86369
1 12.2622 28.4126 10.642
1 13.0559 27.6189 10.642
1 13.0625 28.4026 9.86711
1 12.2564 27.5739 9.8585
1 13.8496 28.4126 10.642
1 14.6433 27.6189 10.642
1 14.6377 28.3895 9.82742
1 13.8552 27.6005 9.84895
1 15.437 28.4126 10.642
1 16.2307 27.6189 10.642
1 16.2171 28.4061 9.84995
1 15.4432 27.6206 9.86411
1 17.0244 28.4126 10.642
1 17.8181 27.6189 10.642
1 17.8275 28.3795 9.84149
1 17.029 27.6047 9.84174
1 18.6118 28.4126 10.642
1 19.4055 27.6189 10.642
1 19.4086 28.4038 9.85526
1 18.6218 27.6035 9.83762
1 20.1992 28.4126 10.642
1 20.9929 27.6189 10.642
1 21.001 28.3929 9.84257
1 20.1851 27.5718 9.85616
1 21.7866 28.4126 10.642
1 22.5803 27.6189 10.642
1 22.5798 28.3561 9.84062
1 21.7733 27.5954 9.86666
1 23.374 28.4126 10.642
1 24.1677 27.6189 10.642
1 24.1923 28.4118 9.81842
1 23.3797 27.6183 9.8443
1 24.9614 28.4126 10.642
1 25.7551 27.6189 10.642
1 25.7471 28.4007 9.87494
1 24.982 27.6199 9.84344
1 26.5488 28.4126 10.642
1 27.3425 27.6189 10.642
1 27.3588 28.4116 9.86511
1 26.5259 27.6367 9.85604
1 28.1362 28.4126 10.642
1 28.9299 27.6189 10.642
1 28.9407 28.3932 9.82459
1 28.1129 27.6168 9.82646
1 29.7236 28.4126 10.642
1 0.517315 27.6189 10.642
1 0.517421 28.4001 9.84897
1 29.7224 27.5918 9.83917
1 1.31102 28.4126 10.642
1 2.10472 27.6189 10.642
1 2.11348 28.3807 9.84848
1 1.30497 27.6203 9.84053
1 2.89842 28.4126 10.642
1 3.69212 27.6189 10.642
1 3.67564 28.3909 9.85019
1 2.91096 27.6223 9.86089
1 4.48582 28.4126 10.642
1 5.27952 27.6189 10.642
1 5.25349 28.3834 9.83442
1 4.45999 27.6001 9.85032
1 6.07322 28.4126 10.642
1 6.86692 27.6189 10.642
1 6.79551 28.3855 9.83048
1 6.04264 27.6014 9.86034
1 7.5 26.8252 10.642
1 8.2937 26.0315 10.642
1 8.30079 26.8325 9.85329
1 7.54882 26.0406 9.81607
1 9.0874 26.8252 10.642
1 9.8811 26.0315 10.642
1 9.9129 26.8206 9.8399
1 9.11664 26.0513 9.86231
1 10.6748 26.8252 10.642
1 11.4685 26.0315 10.642
1 11.4612 26.8028 9.83829
1 10.691 26.0005 9.8505
1 12.2622 26.8252 10.642
1 13.0559 26.0315 10.642
1 13.0435 26.8247 9.86315
1 12.2733 26.0065 9.85038
1 13.8496 26.8252 10.642
1 14.6433 26.0315 10.642
1 14.6364 26.8233 9.86153
1 13.8601 26.0386 9.87651
1 15.437 26.8252 10.642
1 16.2307 26.0315 10.642
1 16.2304 26.8282 9.84994
1 15.4496 26.0176 9.83351
1 17.0244 26.8252 10.642
1 17.8181 26.0315 10.642
1 17.8378 26.8073 9.85112
1 17.0457 26.0218 9.84981
1 18.6118 26.8252 10.642
1 19.4055 26.0315 10.642
1 19.3923 26.8242 9.86447
1 18.6162 25.9843 9.8441
1 20.1992 26.8252 10.642
1 20.9929 26.0315 10.642
1 20.9837 26.8064 9.84333
1 20.1841 26.0472 9.86112
1 21.7866 26.8252 10.642
1 22.5803 26.0315 10.642
1 22.564 26.8173 9.86356
1 21.8048 26.0232 9.8595
1 23.374 26.8252 10.642
1 24.1677 26.0315 10.642
1 24.1733 26.8167 9.85922
1 23.3864 26.026 9.84025
1 24.9614 26.8252 10.642
1 25.7551 26.0315 10.642
1 25.7302 26.8047 9.8572
1 24.9783 26.0357 9.87361
1 26.5488 26.8252 10.642
1 27.3425 26.0315 10.642
1 27.3346 26.7956 9.85433
1 26.5461 26.0257 9.86089
1 28.1362 26.8252 10.642
1 28.9299 26.0315 10.642
1 28.924 26.814 9.8598
1 28.1241 26.0317 9.85314
1 29.7236 26.8252 10.642
1 0.517315 26.0315 10.642
1 0.493892 26.8393 9.83834
1 29.6932 26.0353 9.8559
1 1.31102 26.8252 10.642
1 2.10472 26.0315 10.642
1 2.07557 26.8512 9.84269
1 1.30026 26.0324 9.86121
1 2.89842 26.8252 10.642
1 3.69212 26.0315 10.642
1 3.67433 26.8233 9.87138
1 2.88805 26.0546 9.86338
1 4.48582 26.8252 10.642
1 5.27952 26.0315 10.642
1 5.26912 26.8221 9.84202
1 4.46069 26.0141 9.84554
1 6.07322 26.8252 10.642
1 6.86692 26.0315 10.642
1 6.818 26.8461 9.79827
1 6.05034 26.0284 9.81505
1 7.5 25.2378 10.642
1 8.2937 24.4441 10.642
1 8.33718 25.2574 9.83407
1 7.5865 24.4496 9.81074
1 9.0874 25.2378 10.642
1 9.8811 24.4441 10.642
1 9.91333 25.24 9.82897
1 9.11246 24.4438 9.87934
1 10.6748 25.2378 10.642
1 11.4685 24.4441 10.642
1 11.4777 25.2092 9.85486
1 10.6765 24.4276 9.86218
1 12.2622 25.2378 10.642
1 13.0559 24.4441 10.642
1 13.0759 25.2307 9.85965
1 12.2869 24.4321 9.86837
1 13.8496 25.2378 10.642
1 14.6433 24.4441 10.642
1 14.6503 25.2315 9.8499
1 13.8357 24.4155 9.85274
1 15.437 25.2378 10.642
1 16.2307 24.4441 10.642
1 16.2163 25.2478 9.88537
1 15.4092 24.45 9.83948
1 17.0244 25.2378 10.642
1 17.8181 24.4441 10.642
1 17.8206 25.2514 9.84442
1 17.0248 24.4462 9.8529
1 18.6118 25.2378 10.642
1 19.4055 24.4441 10.642
1 19.4181 25.2301 9.82048
1 18.6058 24.4556 9.83817
1 20.1992 25.2378 10.642
1 20.9929 24.4441 10.642
1 20.949 25.2367 9.85494
1 20.1863 24.4312 9.82608
1 21.7866 25.2378 10.642
1 22.5803 24.4441 10.642
1 22.5848 25.2248 9.82529
1 21.7862 24.437 9.85651
1 23.374 25.2378 10.642
1 24.1677 24.4441 10.642
1 24.177 25.2447 9.83982
1 23.3879 24.432 9.84523
1 24.9614 25.2378 10.642
1 25.7551 24.4441 10.642
1 25.7594 25.2625 9.82652
1 24.9827 24.4512 9.82423
1 26.5488 25.2378 10.642
1 27.3425 24.4441 10.642
1 27.3322 25.2293 9.8368
1 26.5554 24.4672 9.8191
1 28.1362 25.2378 10.642
1 28.9299 24.4441 10.642
1 28.9173 25.2279 9.85455
1 28.127 24.4293 9.85372
1 29.7236 25.2378 10.642
1 0.517315 24.4441 10.642
1 0.487392 25.2482 9.86132
1 29.7093 24.4312 9.83709
1 1.31102 25.2378 10.642
1 2.10472 24.4441 10.642
1 2.11663 25.2421 9.84691
1 1.3137 24.4073 9.8585
1 2.89842 25.2378 10.642
1 3.69212 24.4441 10.642
1 3.66654 25.2492 9.86021
1 2.8797 24.4472 9.85573
1 4.48582 25.2378 10.642
1 5.27952 24.4441 10.642
1 5.24914 25.2481 9.83178
1 4.46419 24.4362 9.86499
1 6.07322 25.2378 10.642
1 6.86692 24.4441 10.642
1 6.79242 25.2437 9.82647
1 6.05567 24.4582 9.85844
1 7.5 23.6504 10.642
1 8.2937 22.8567 10.642
1 8.32193 23.6419 9.83645
1 7.57962 22.8657 9.80902
1 9.0874 23.6504 10.642
1 9.8811 22.8567 10.642
1 9.89613 23.6407 9.87763
1 9.09298 22.8674 9.84784
1 10.6748 23.6504 10.642
1 11.4685 22.8567 10.642
1 11.4842 23.6488 9.85563
1 10.6836 22.8367 9.84538
1 12.2622 23.6504 10.642
1 13.0559 22.8567 10.642
1 13.0685 23.6495 9.8336
1 12.2785 22.8847 9.84635
1 13.8496 23.6504 10.642
1 14.6433 22.8567 10.642
1 14.6292 23.6594 9.87355
1 13.8549 22.8556 9.85423
1 15.437 23.6504 10.642
1 16.2307 22.8567 10.642
1 16.2411 23.6548 9.84955
1 15.4188 22.8397 9.85448
1 17.0244 23.6504 10.642
1 17.8181 22.8567 10.642
1 17.8018 23.6451 9.84014
1 17.0258 22.8509 9.85377
1 18.6118 23.6504 10.642
1 19.4055 22.8567 10.642
1 19.3941 23.649 9.82112
1 18.6097 22.8552 9.82913
1 20.1992 23.6504 10.642
1 20.9929 22.8567 10.642
1 20.9957 23.6506 9.83845
1 20.1935 22.8408 9.85629
1 21.7866 23.6504 10.642
1 22.5803 22.8567 10.642
1 22.5979 23.6368 9.8397
1 21.7642 22.8556 9.83758
1 23.374 23.6504 10.642
1 24.1677 22.8567 10.642
1 24.1743 23.6624 9.86769
1 23.3793 22.8605 9.84872
1 24.9614 23.6504 10.642
1 25.7551 22.8567 10.642
1 25.7693 23.6645 9.82683
1 24.9742 22.8667 9.87086
1 26.5488 23.6504 10.642
1 27.3425 22.8567 10.642
1 27.3332 23.6646 9.83567
1 26.5373 22.8561 9.85552
1 28.1362 23.6504 10.642
1 28.9299 22.8567 10.642
1 28.9294 23.6461 9.85478
1 28.1542 22.8591 9.87231
1 29.7236 23.6504 10.642
1 0.517315 22.8567 10.642
1 0.523902 23.6416 9.8666
1 29.7296 22.8472 9.88439
1 1.31102 23.6504 10.642
1 2.10472 22.8567 10.642
1 2.10224 23.6353 9.86126
1 1.29692 22.8685 9.86068
1 2.89842 23.6504 10.642
1 3.69212 22.8567 10.642
1 3.67563 23.6469 9.83698
1 2.88921 22.8579 9.85735
1 4.48582 23.6504 10.642
1 5.27952 22.8567 10.642
1 5.25474 23.6731 9.86364
1 4.48055 22.8464 9.82095
1 6.07322 23.6504 10.642
1 6.86692 22.8567 10.642
1 6.80238 23.6498 9.82304
1 6.0604 22.8551 9.83774
1 7.5 22.063 10.642
1 8.2937 21.2693 10.642
1 8.35581 22.0693 9.84851
1 7.57675 21.2598 9.81091
1 9.0874 22.063 10.642
1 9.8811 21.2693 10.642
1 9.88279 22.0377 9.84664
1 9.11115 21.2481 9.83474
1 10.6748 22.063 10.642
1 11.4685 21.2693 10.642
1 11.4733 22.0746 9.85864
1 10.6864 21.2556 9.84296
1 12.2622 22.063 10.642
1 13.0559 21.2693 10.642
1 13.0622 22.0797 9.85649
1 12.2764 21.2533 9.86774
1 13.8496 22.063 10.642
1 14.6433 21.2693 10.642
1 14.6481 22.0456 9.83713
1 13.8381 21.2778 9.86841
1 15.437 22.063 10.642
1 16.2307 21.2693 10.642
1 16.242 22.0597 9.86079
1 15.4514 21.2729 9.84591
1 17.0244 22.063 10.642
1 17.8181 21.2693 10.642
1 17.8174 22.0713 9.85153
1 17.0482 21.2805 9.8557
1 18.6118 22.063 10.642
1 19.4055 21.2693 10.642
1 19.3986 22.0459 9.84588
1 18.591 21.2526 9.84551
1 20.1992 22.063 10.642
1 20.9929 21.2693 10.642
1 21.0003 22.0803 9.83505
1 20.1955 21.2686 9.87016
1 21.7866 22.063 10.642
1 22.5803 21.2693 10.642
1 22.5925 22.0777 9.85393
1 21.7999 21.2452 9.84143
1 23.374 22.063 10.642
1 24.1677 21.2693 10.642
1 24.1715 22.0526 9.86302
1 23.3842 21.2918 9.84746
1 24.9614 22.063 10.642
1 25.7551 21.2693 10.642
1 25.7529 22.0382 9.85669
1 24.9589 21.2767 9.84007
1 26.5488 22.063 10.642
1 27.3425 21.2693 10.642
1 27.355 22.0722 9.83255
1 26.5428 21.2533 9.85924
1 28.1362 22.063 10.642
1 28.9299 21.2693 10.642
1 28.9377 22.0639 9.84274
1 28.1589 21.263 9.87137
1 29.7236 22.063 10.642
1 0.517315 21.2693 10.642
1 0.505647 22.0349 9.85104
1 29.7092 21.2709 9.84739
1 1.31102 22.063 10.642
1 2.10472 21.2693 10.642
1 2.10063 22.0653 9.88636
1 1.3307 21.2655 9.84894
1 2.89842 22.063 10.642
1 3.69212 21.2693 10.642
1 3.66501 22.0787 9.86462
1 2.90549 21.2635 9.83734
1 4.48582 22.063 10.642
1 5.27952 21.2693 10.642
1 5.27237 22.0691 9.83412
1 4.47075 21.2702 9.84394
1 6.07322 22.063 10.642
1 6.86692 21.2693 10.642
1 6.80522 22.0574 9.80642
1 6.02777 21.2596 9.84451
1 7.5 20.4756 10.642
1 8.2937 19.6819 10.642
1 8.35383 20.4668 9.84084
1 7.58111 19.6846 9.80196
1 9.0874 20.4756 10.642
1 9.8811 19.6819 10.642
1 9.89235 20.4644 9.83519
1 9.09305 19.6815 9.84764
1 10.6748 20.4756 10.642
1 11.4685 19.6819 10.642
1 11.4808 20.4731 9.87348
1 10.6865 19.6697 9.86382
1 12.2622 20.4756 10.642
1 13.0559 19.6819 10.642
1 13.0784 20.4754 9.84362
1 12.2704 19.7061 9.85111
1 13.8496 20.4756 10.642
1 14.6433 19.6819 10.642
1 14.666 20.4934 9.85245
1 13.829 19.6991 9.8553
1 15.437 20.4756 10.642
1 16.2307 19.6819 10.642
1 16.2443 20.4703 9.82635
1 15.433 19.6814 9.84815
1 17.0244 20.4756 10.642
1 17.8181 19.6819 10.642
1 17.8156 20.4586 9.85
1 17.038 19.6544 9.83513
1 18.6118 20.4756 10.642
1 19.4055 19.6819 10.642
1 19.4131 20.4778 9.85266
1 18.6186 19.6865 9.83104
1 20.1992 20.4756 10.642
1 20.9929 19.6819 10.642
1 20.9899 20.4803 9.86021
1 20.2002 19.6883 9.84245
1 21.7866 20.4756 10.642
1 22.5803 19.6819 10.642
1 22.5849 20.4617 9.82751
1 21.7829 19.7091 9.84227
1 23.374 20.4756 10.642
1 24.1677 19.6819 10.642
1 24.1519 20.4803 9.86107
1 23.3842 19.6928 9.84292
1 24.9614 20.4756 10.642
1 25.7551 19.6819 10.642
1 25.7431 20.4742 9.86003
1 24.9528 19.692 9.84392
1 26.5488 20.4756 10.642
1 27.3425 19.6819 10.642
1 27.3324 20.4794 9.85298
1 26.5419 19.6622 9.87878
1 28.1362 20.4756 10.642
1 28.9299 19.6819 10.642
1 28.9302 20.4836 9.84136
1 28.1416 19.6895 9.85894
1 29.7236 20.4756 10.642
1 0.517315 19.6819 10.642
1 0.498918 20.4981 9.86575
1 29.7126 19.6844 9.84276
1 1.31102 20.4756 10.642
1 2.10472 19.6819 10.642
1 2.09147 20.4411 9.84757
1 1.3082 19.6963 9.85511
1 2.89842 20.4756 10.642
1 3.69212 19.6819 10.642
1 3.68387 20.4579 9.84339
1 2.9013 19.6669 9.84825
1 4.48582 20.4756 10.642
1 5.27952 19.6819 10.642
1 5.26603 20.4704 9.84131
1 4.4868 19.6725 9.87225
1 6.07322 20.4756 10.642
1 6.86692 19.6819 10.642
1 6.81659 20.4631 9.81811
1 6.05089 19.6938 9.83448
1 7.5 18.8882 10.642
1 8.2937 18.0945 10.642
1 8.33979 18.8863 9.83505
1 7.58663 18.1273 9.81568
1 9.0874 18.8882 10.642
1 9.8811 18.0945 10.642
1 9.87543 18.9121 9.87099
1 9.11413 18.0833 9.82992
1 10.6748 18.8882 10.642
1 11.4685 18.0945 10.642
1 11.4935 18.8722 9.86215
1 10.7115 18.1154 9.85396
1 12.2622 18.8882 10.642
1 13.0559 18.0945 10.642
1 13.0719 18.8792 9.8593
1 12.2731 18.0919 9.85051
1 13.8496 18.8882 10.642
1 14.6433 18.0945 10.642
1 14.6833 18.8909 9.80698
1 13.8539 18.1026 9.86266
1 15.437 18.8882 10.642
1 16.2307 18.0945 10.642
1 16.2335 18.8854 9.82851
1 15.4431 18.0836 9.81084
1 17.0244 18.8882 10.642
1 17.8181 18.0945 10.642
1 17.8266 18.8743 9.82826
1 17.0266 18.0923 9.81709
1 18.6118 18.8882 10.642
1 19.4055 18.0945 10.642
1 19.4002 18.8977 9.85356
1 18.6122 18.1116 9.83801
1 20.1992 18.8882 10.642
1 20.9929 18.0945 10.642
1 20.9972 18.8908 9.86601
1 20.2118 18.0887 9.84645
1 21.7866 18.8882 10.642
1 22.5803 18.0945 10.642
1 22.5695 18.8719 9.84678
1 21.753 18.0833 9.85086
1 23.374 18.8882 10.642
1 24.1677 18.0945 10.642
1 24.1739 18.8949 9.82456
1 23.3649 18.0908 9.84126
1 24.9614 18.8882 10.642
1 25.7551 18.0945 10.642
1 25.7565 18.9031 9.85427
1 24.9516 18.08 9.85601
1 26.5488 18.8882 10.642
1 27.3425 18.0945 10.642
1 27.3395 18.8753 9.84308
1 26.5581 18.0887 9.85883
1 28.1362 18.8882 10.642
1 28.9299 18.0945 10.642
1 28.9516 18.8956 9.84991
1 28.1574 18.1188 9.84455
1 29.7236 18.8882 10.642
1 0.517315 18.0945 10.642
1 0.523377 18.8804 9.85591
1 29.6975 18.0846 9.86147
1 1.31102 18.8882 10.642
1 2.10472 18.0945 10.642
1 2.08073 18.884 9.83881
1 1.31556 18.0977 9.83339
1 2.89842 18.8882 10.642
1 3.69212 18.0945 10.642
1 3.70608 18.9003 9.85428
1 2.91052 18.1295 9.87628
1 4.48582 18.8882 10.642
1 5.27952 18.0945 10.642
1 5.28522 18.8713 9.85531
1 4.49402 18.0961 9.85085
1 6.07322 18.8882 10.642
1 6.86692 18.0945 10.642
1 6.81105 18.9184 9.80255
1 6.04597 18.1063 9.8411
1 7.5 17.3008 10.642
1 8.2937 16.5071 10.642
1 8.31738 17.3179 9.84105
1 7.56607 16.5239 9.82414
1 9.0874 17.3008 10.642
1 9.8811 16.5071 10.642
1 9.89335 17.3247 9.84351
1 9.11568 16.5276 9.84016
1 10.6748 17.3008 10.642
1 11.4685 16.5071 10.642
1 11.4868 17.3085 9.85268
1 10.6837 16.529 9.85998
1 12.2622 17.3008 10.642
1 13.0559 16.5071 10.642
1 13.0668 17.2963 9.83833
1 12.2735 16.514 9.84558
1 13.8496 17.3008 10.642
1 14.6433 16.5071 10.642
1 14.6643 17.3204 9.85827
1 13.8631 16.5035 9.86098
1 15.437 17.3008 10.642
1 16.2307 16.5071 10.642
1 16.2342 17.31 9.83488
1 15.4484 16.4927 9.83931
1 17.0244 17.3008 10.642
1 17.8181 16.5071 10.642
1 17.8404 17.2758 9.8511
1 17.0255 16.512 9.84307
1 18.6118 17.3008 10.642
1 19.4055 16.5071 10.642
1 19.4003 17.2995 9.83835
1 18.6117 16.493 9.83006
1 20.1992 17.3008 10.642
1 20.9929 16.5071 10.642
1 20.9802 17.3019 9.8351
1 20.2045 16.5126 9.83295
1 21.7866 17.3008 10.642
1 22.5803 16.5071 10.642
1 22.5806 17.2904 9.85946
1 21.8021 16.5309 9.85664
1 23.374 17.3008 10.642
1 24.1677 16.5071 10.642
1 24.1377 17.2906 9.87017
1 23.3925 16.4974 9.84941
1 24.9614 17.3008 10.642
1 25.7551 16.5071 10.642
1 25.7893 17.2618 9.84608
1 24.9545 16.5048 9.83371
1 26.5488 17.3008 10.642
1 27.3425 16.5071 10.642
1 27.3679 17.3164 9.8489
1 26.6059 16.4873 9.84797
1 28.1362 17.3008 10.642
1 28.9299 16.5071 10.642
1 28.9275 17.2951 9.86767
1 28.1222 16.5057 9.84761
1 29.7236 17.3008 10.642
1 0.517315 16.5071 10.642
1 0.502086 17.3216 9.858
1 29.7057 16.5195 9.85457
1 1.31102 17.3008 10.642
1 2.10472 16.5071 10.642
1 2.13164 17.3233 9.85146
1 1.31724 16.5246 9.88437
1 2.89842 17.3008 10.642
1 3.69212 16.5071 10.642
1 3.68292 17.308 9.86716
1 2.90448 16.4933 9.84412
1 4.48582 17.3008 10.642
1 5.27952 16.5071 10.642
1 5.26876 17.3026 9.85725
1 4.44414 16.5089 9.86326
1 6.07322 17.3008 10.642
1 6.86692 16.5071 10.642
1 6.8224 17.3339 9.81259
1 6.05305 16.5227 9.85588
1 7.5 15.7134 10.642
1 8.2937 14.9197 10.642
1 8.31678 15.7058 9.82598
1 7.54691 14.9011 9.81695
1 9.0874 15.7134 10.642
1 9.8811 14.9197 10.642
1 9.88914 15.7408 9.83385
1 9.10036 14.903 9.84753
1 10.6748 15.7134 10.642
1 11.4685 14.9197 10.642
1 11.4687 15.7113 9.86361
1 10.6835 14.9149 9.85492
1 12.2622 15.7134 10.642
1 13.0559 14.9197 10.642
1 13.045 15.7035 9.84848
1 12.2656 14.9127 9.85486
1 13.8496 15.7134 10.642
1 14.6433 14.9197 10.642
1 14.6571 15.6835 9.84553
1 13.8534 14.8923 9.8597
1 15.437 15.7134 10.642
1 16.2307 14.9197 10.642
1 16.2494 15.7022 9.85879
1 15.4548 14.9431 9.84144
1 17.0244 15.7134 10.642
1 17.8181 14.9197 10.642
1 17.8487 15.7298 9.82884
1 17.0489 14.9398 9.852
1 18.6118 15.7134 10.642
1 19.4055 14.9197 10.642
1 19.4122 15.7365 9.84685
1 18.6245 14.9062 9.86271
1 20.1992 15.7134 10.642
1 20.9929 14.9197 10.642
1 21.0044 15.7259 9.8517
1 20.1857 14.9292 9.85846
1 21.7866 15.7134 10.642
1 22.5803 14.9197 10.642
1 22.5861 15.7198 9.83938
1 21.786 14.9081 9.85617
1 23.374 15.7134 10.642
1 24.1677 14.9197 10.642
1 24.1601 15.6881 9.86101
1 23.3654 14.8906 9.86723
1 24.9614 15.7134 10.642
1 25.7551 14.9197 10.642
1 25.7596 15.7116 9.85097
1 24.9601 14.9067 9.84603
1 26.5488 15.7134 10.642
1 27.3425 14.9197 10.642
1 27.3404 15.6725 9.82406
1 26.5619 14.8931 9.84738
1 28.1362 15.7134 10.642
1 28.9299 14.9197 10.642
1 28.9399 15.7035 9.84255
1 28.1488 14.916 9.84544
1 29.7236 15.7134 10.642
1 0.517315 14.9197 10.642
1 0.499433 15.7309 9.86027
1 29.7104 14.9416 9.87376
1 1.31102 15.7134 10.642
1 2.10472 14.9197 10.642
1 2.10666 15.7333 9.86853
1 1.31136 14.9376 9.83861
1 2.89842 15.7134 10.642
1 3.69212 14.9197 10.642
1 3.7002 15.7032 9.86028
1 2.89413 14.9213 9.85692
1 4.48582 15.7134 10.642
1 5.27952 14.9197 10.642
1 5.26824 15.7078 9.83074
1 4.45531 14.9012 9.8694
1 6.07322 15.7134 10.642
1 6.86692 14.9197 10.642
1 6.79335 15.7314 9.80871
1 6.03563 14.9203 9.81243
1 7.5 14.126 10.642
1 8.2937 13.3323 10.642
1 8.30903 14.1254 9.84449
1 7.54027 13.3463 9.77862
1 9.0874 14.126 10.642
1 9.8811 13.3323 10.642
1 9.89447 14.1078 9.82577
1 9.10299 13.3294 9.86238
1 10.6748 14.126 10.642
1 11.4685 13.3323 10.642
1 11.5039 14.1314 9.85094
1 10.6972 13.3312 9.87046
1 12.2622 14.126 10.642
1 13.0559 13.3323 10.642
1 13.0375 14.1327 9.85058
1 12.2623 13.3232 9.85643
1 13.8496 14.126 10.642
1 14.6433 13.3323 10.642
1 14.6593 14.1284 9.8463
1 13.867 13.3508 9.85326
1 15.437 14.126 10.642
1 16.2307 13.3323 10.642
1 16.2356 14.1237 9.85092
1 15.4444 13.3487 9.83802
1 17.0244 14.126 10.642
1 17.8181 13.3323 10.642
1 17.8184 14.1285 9.8299
1 17.0125 13.3362 9.8519
1 18.6118 14.126 10.642
1 19.4055 13.3323 10.642
1 19.3876 14.1195 9.84554
1 18.6032 13.3302 9.8313
1 20.1992 14.126 10.642
1 20.9929 13.3323 10.642
1 20.9885 14.1372 9.83515
1 20.197 13.3142 9.85454
1 21.7866 14.126 10.642
1 22.5803 13.3323 10.642
1 22.5807 14.1353 9.86737
1 21.7848 13.3448 9.84125
1 23.374 14.126 10.642
1 24.1677 13.3323 10.642
1 24.1929 14.1038 9.84794
1 23.3618 13.3481 9.82653
1 24.9614 14.126 10.642
1 25.7551 13.3323 10.642
1 25.7594 14.125 9.85863
1 24.9413 13.3336 9.83274
1 26.5488 14.126 10.642
1 27.3425 13.3323 10.642
1 27.343 14.1248 9.83836
1 26.554 13.3237 9.84521
1 28.1362 14.126 10.642
1 28.9299 13.3323 10.642
1 28.9239 14.1312 9.87282
1 28.1231 13.3113 9.83431
1 29.7236 14.126 10.642
1 0.517315 13.3323 10.642
1 0.498988 14.13 9.84558
1 29.7285 13.3339 9.89004
1 1.31102 14.126 10.642
1 2.10472 13.3323 10.642
1 2.09927 14.1315 9.84241
1 1.3123 13.3582 9.85193
1 2.89842 14.126 10.642
1 3.69212 13.3323 10.642
1 3.67299 14.1209 9.85334
1 2.88782 13.3391 9.86759
1 4.48582 14.126 10.642
1 5.27952 13.3323 10.642
1 5.25069 14.107 9.82969
1 4.45686 13.3583 9.82913
1 6.07322 14.126 10.642
1 6.86692 13.3323 10.642
1 6.79191 14.123 9.7994
1 6.03149 13.3312 9.83433
1 7.5 12.5386 10.642
1 8.2937 11.7449 10.642
1 8.34758 12.5484 9.83474
1 7.57438 11.7448 9.80021
1 9.0874 12.5386 10.642
1 9.8811 11.7449 10.642
1 9.89153 12.5314 9.8227
1 9.11357 11.7515 9.84399
1 10.6748 12.5386 10.642
1 11.4685 11.7449 10.642
1 11.468 12.531 9.86904
1 10.6838 11.7506 9.86765
1 12.2622 12.5386 10.642
1 13.0559 11.7449 10.642
1 13.0718 12.5369 9.85776
1 12.2721 11.7439 9.87242
1 13.8496 12.5386 10.642
1 14.6433 11.7449 10.642
1 14.6445 12.5443 9.86136
1 13.8662 11.716 9.85301
1 15.437 12.5386 10.642
1 16.2307 11.7449 10.642
1 16.2454 12.5368 9.84941
1 15.4345 11.7353 9.84659
1 17.0244 12.5386 10.642
1 17.8181 11.7449 10.642
1 17.8364 12.5357 9.82953
1 17.0388 11.736 9.85223
1 18.6118 12.5386 10.642
1 19.4055 11.7449 10.642
1 19.407 12.5229 9.8373
1 18.6028 11.7446 9.83752
1 20.1992 12.5386 10.642
1 20.9929 11.7449 10.642
1 21.0031 12.5063 9.85001
1 20.1913 11.7302 9.83883
1 21.7866 12.5386 10.642
1 22.5803 11.7449 10.642
1 22.5629 12.5435 9.83965
1 21.8171 11.7442 9.85053
1 23.374 12.5386 10.642
1 24.1677 11.7449 10.642
1 24.1326 12.5466 9.86158
1 23.3603 11.748 9.83138
1 24.9614 12.5386 10.642
1 25.7551 11.7449 10.642
1 25.7418 12.5485 9.83193
1 24.9522 11.7663 9.84985
1 26.5488 12.5386 10.642
1 27.3425 11.7449 10.642
1 27.3277 12.5332 9.84622
1 26.5494 11.7474 9.85023
1 28.1362 12.5386 10.642
1 28.9299 11.7449 10.642
1 28.9092 12.5449 9.837
1 28.1324 11.7703 9.85198
1 29.7236 12.5386 10.642
1 0.517315 11.7449 10.642
1 0.521721 12.5377 9.86199
1 29.7138 11.7732 9.85997
1 1.31102 12.5386 10.642
1 2.10472 11.7449 10.642
1 2.09507 12.5262 9.83602
1 1.2909 11.7441 9.85885
1 2.89842 12.5386 10.642
1 3.69212 11.7449 10.642
1 3.69758 12.5394 9.8509
1 2.89841 11.7393 9.83859
1 4.48582 12.5386 10.642
1 5.27952 11.7449 10.642
1 5.21758 12.5271 9.84886
1 4.45728 11.7303 9.86257
1 6.07322 12.5386 10.642
1 6.86692 11.7449 10.642
1 6.80252 12.5191 9.82118
1 6.04808 11.7313 9.83944
1 7.5 10.9512 10.642
1 8.2937 10.1575 10.642
1 8.308 10.9548 9.8457
1 7.57863 10.1495 9.80989
1 9.0874 10.9512 10.642
1 9.8811 10.1575 10.642
1 9.875 10.9578 9.85283
1 9.10639 10.1591 9.83213
1 10.6748 10.9512 10.642
1 11.4685 10.1575 10.642
1 11.465 10.9476 9.85335
1 10.6894 10.1713 9.83214
1 12.2622 10.9512 10.642
1 13.0559 10.1575 10.642
1 13.045 10.9399 9.84949
1 12.257 10.1413 9.84031
1 13.8496 10.9512 10.642
1 14.6433 10.1575 10.642
1 14.6268 10.9427 9.8568
1 13.8401 10.1486 9.83511
1 15.437 10.9512 10.642
1 16.2307 10.1575 10.642
1 16.2491 10.9607 9.85026
1 15.4513 10.1497 9.85555
1 17.0244 10.9512 10.642
1 17.8181 10.1575 10.642
1 17.8172 10.9459 9.84398
1 17.0475 10.1473 9.81843
1 18.6118 10.9512 10.642
1 19.4055 10.1575 10.642
1 19.3809 10.9463 9.85283
1 18.6033 10.1587 9.84621
1 20.1992 10.9512 10.642
1 20.9929 10.1575 10.642
1 21.0041 10.9539 9.86479
1 20.2182 10.1881 9.83691
1 21.7866 10.9512 10.642
1 22.5803 10.1575 10.642
1 22.603 10.966 9.84572
1 21.8124 10.1696 9.847
1 23.374 10.9512 10.642
1 24.1677 10.1575 10.642
1 24.1719 10.947 9.85964
1 23.369 10.1697 9.85337
1 24.9614 10.9512 10.642
1 25.7551 10.1575 10.642
1 25.7663 10.9647 9.87372
1 24.9757 10.1762 9.84865
1 26.5488 10.9512 10.642
1 27.3425 10.1575 10.642
1 27.338 10.9519 9.86158
1 26.5461 10.1636 9.82596
1 28.1362 10.9512 10.642
1 28.9299 10.1575 10.642
1 28.9404 10.959 9.85044
1 28.1515 10.1561 9.85872
1 29.7236 10.9512 10.642
1 0.517315 10.1575 10.642
1 0.488848 10.9298 9.85605
1 29.6971 10.1477 9.86811
1 1.31102 10.9512 10.642
1 2.10472 10.1575 10.642
1 2.06751 10.9474 9.861
1 1.30183 10.1617 9.84369
1 2.89842 10.9512 10.642
1 3.69212 10.1575 10.642
1 3.68805 10.9025 9.85298
1 2.8614 10.1288 9.85163
1 4.48582 10.9512 10.642
1 5.27952 10.1575 10.642
1 5.24912 10.9327 9.83183
1 4.48037 10.1491 9.86719
1 6.07322 10.9512 10.642
1 6.86692 10.1575 10.642
1 6.79595 10.9229 9.83868
1 6.02914 10.1541 9.84095
1 7.5 9.36379 10.642
1 8.2937 8.57009 10.642
1 8.31035 9.35428 9.86125
1 7.55764 8.56261 9.82753
1 9.0874 9.36379 10.642
1 9.8811 8.57009 10.642
1 9.88668 9.33728 9.86343
1 9.08461 8.55517 9.82632
1 10.6748 9.36379 10.642
1 11.4685 8.57009 10.642
1 11.4614 9.37334 9.86032
1 10.6864 8.57178 9.85485
1 12.2622 9.36379 10.642
1 13.0559 8.57009 10.642
1 13.061 9.35687 9.84856
1 12.2557 8.5788 9.87158
1 13.8496 9.36379 10.642
1 14.6433 8.57009 10.642
1 14.6352 9.32472 9.85497
1 13.8424 8.57428 9.85196
1 15.437 9.36379 10.642
1 16.2307 8.57009 10.642
1 16.2582 9.35287 9.84049
1 15.4421 8.56363 9.84661
1 17.0244 9.36379 10.642
1 17.8181 8.57009 10.642
1 17.8387 9.36958 9.85069
1 17.0206 8.58285 9.86885
1 18.6118 9.36379 10.642
1 19.4055 8.57009 10.642
1 19.4451 9.37723 9.85445
1 18.6332 8.58959 9.82744
1 20.1992 9.36379 10.642
1 20.9929 8.57009 10.642
1 21.0027 9.37025 9.81816
1 20.2168 8.56901 9.85975
1 21.7866 9.36379 10.642
1 22.5803 8.57009 10.642
1 22.5897 9.37398 9.86744
1 21.7905 8.56937 9.85295
1 23.374 9.36379 10.642
1 24.1677 8.57009 10.642
1 24.1845 9.37177 9.845
1 23.3825 8.55402 9.86955
1 24.9614 9.36379 10.642
1 25.7551 8.57009 10.642
1 25.7558 9.38863 9.84865
1 24.946 8.55877 9.84065
1 26.5488 9.36379 10.642
1 27.3425 8.57009 10.642
1 27.3394 9.36388 9.83709
1 26.5418 8.58141 9.85993
1 28.1362 9.36379 10.642
1 28.9299 8.57009 10.642
1 28.9217 9.34812 9.86565
1 28.1245 8.56494 9.8659
1 29.7236 9.36379 10.642
1 0.517315 8.57009 10.642
1 0.515052 9.37098 9.87222
1 29.7379 8.5676 9.87952
1 1.31102 9.36379 10.642
1 2.10472 8.57009 10.642
1 2.09153 9.34524 9.82379
1 1.30538 8.56104 9.82729
1 2.89842 9.36379 10.642
1 3.69212 8.57009 10.642
1 3.66461 9.36851 9.81589
1 2.87952 8.59105 9.84971
1 4.48582 9.36379 10.642
1 5.27952 8.57009 10.642
1 5.25914 9.36757 9.85851
1 4.46879 8.5815 9.85782
1 6.07322 9.36379 10.642
1 6.86692 8.57009 10.642
1 6.79272 9.3629 9.81491
1 6.06079 8.58126 9.82759
1 7.5 7.77639 10.642
1 8.2937 6.98268 10.642
1 8.32405 7.76911 9.82733
1 7.57045 6.97361 9.82962
1 9.0874 7.77639 10.642
1 9.8811 6.98268 10.642
1 9.88371 7.80058 9.88278
1 9.10597 6.99445 9.8485
1 10.6748 7.77639 10.642
1 11.4685 6.98268 10.642
1 11.4676 7.77886 9.86351
1 10.6792 6.97421 9.86772
1 12.2622 7.77639 10.642
1 13.0559 6.98268 10.642
1 13.0541 7.78916 9.86416
1 12.2532 6.99297 9.82799
1 13.8496 7.77639 10.642
1 14.6433 6.98268 10.642
1 14.6203 7.7516 9.84045
1 13.8277 6.95126 9.85902
1 15.437 7.77639 10.642
1 16.2307 6.98268 10.642
1 16.2471 7.77056 9.82825
1 15.4408 6.97848 9.84857
1 17.0244 7.77639 10.642
1 17.8181 6.98268 10.642
1 17.8192 7.80043 9.83387
1 17.0598 7.01124 9.84088
1 18.6118 7.77639 10.642
1 19.4055 6.98268 10.642
1 19.4229 7.80513 9.85614
1 18.6039 6.98974 9.86336
1 20.1992 7.77639 10.642
1 20.9929 6.98268 10.642
1 20.9845 7.76054 9.85475
1 20.1864 7.0113 9.86288
1 21.7866 7.77639 10.642
1 22.5803 6.98268 10.642
1 22.594 7.76228 9.86242
1 21.8063 6.99022 9.82316
1 23.374 7.77639 10.642
1 24.1677 6.98268 10.642
1 24.1656 7.78478 9.83518
1 23.3984 6.96376 9.85612
1 24.9614 7.77639 10.642
1 25.7551 6.98268 10.642
1 25.7476 7.81176 9.84604
1 24.9815 6.99091 9.86715
1 26.5488 7.77639 10.642
1 27.3425 6.98268 10.642
1 27.3339 7.75406 9.83561
1 26.524 6.96732 9.83366
1 28.1362 7.77639 10.642
1 28.9299 6.98268 10.642
1 28.9244 7.78728 9.86707
1 28.1454 6.99195 9.84283
1 29.7236 7.77639 10.642
1 0.517315 6.98268 10.642
1 0.480198 7.77735 9.83345
1 29.7338 6.98737 9.84324
1 1.31102 7.77639 10.642
1 2.10472 6.98268 10.642
1 2.11547 7.7639 9.83734
1 1.30623 7.01904 9.85524
1 2.89842 7.77639 10.642
1 3.69212 6.98268 10.642
1 3.67483 7.75673 9.84868
1 2.89232 7.0011 9.8372
1 4.48582 7.77639 10.642
1 5.27952 6.98268 10.642
1 5.2547 7.76969 9.85884
1 4.46992 6.98714 9.82451
1 6.07322 7.77639 10.642
1 6.86692 6.98268 10.642
1 6.80961 7.77606 9.81643
1 6.04985 6.97905 9.84944
1 7.5 6.18898 10.642
1 8.2937 5.39528 10.642
1 8.31003 6.19697 9.8498
1 7.55631 5.42635 9.86359
1 9.0874 6.18898 10.642
1 9.8811 5.39528 10.642
1 9.90092 6.17565 9.85525
1 9.10468 5.40417 9.85322
1 10.6748 6.18898 10.642
1 11.4685 5.39528 10.642
1 11.458 6.19946 9.86412
1 10.6958 5.37304 9.83908
1 12.2622 6.18898 10.642
1 13.0559 5.39528 10.642
1 13.0604 6.17242 9.86334
1 12.2674 5.38577 9.83395
1 13.8496 6.18898 10.642
1 14.6433 5.39528 10.642
1 14.6033 6.20085 9.84535
1 13.8613 5.40269 9.85396
1 15.437 6.18898 10.642
1 16.2307 5.39528 10.642
1 16.2413 6.20987 9.84522
1 15.447 5.43674 9.86069
1 17.0244 6.18898 10.642
1 17.8181 5.39528 10.642
1 17.8186 6.19056 9.84649
1 17.0228 5.36532 9.83839
1 18.6118 6.18898 10.642
1 19.4055 5.39528 10.642
1 19.4046 6.19624 9.85082
1 18.6154 5.39339 9.85412
1 20.1992 6.18898 10.642
1 20.9929 5.39528 10.642
1 21.0111 6.19582 9.82815
1 20.2247 5.41532 9.85823
1 21.7866 6.18898 10.642
1 22.5803 5.39528 10.642
1 22.5937 6.19227 9.83196
1 21.8109 5.39891 9.8789
1 23.374 6.18898 10.642
1 24.1677 5.39528 10.642
1 24.1976 6.1881 9.8305
1 23.375 5.39812 9.84013
1 24.9614 6.18898 10.642