9376
Atoms. Timestep: 4000000
1 30 3.55271e-15 10.6748
1 0.793701 29.2063 10.6748
1 0.82727 29.9399 9.83962
1 0.0619973 29.206 9.84099
1 1.5874 3.55271e-15 10.6748
1 2.3811 29.2063 10.6748
1 2.4114 29.9324 9.86314
1 1.60316 29.2215 9.88281
1 3.1748 3.55271e-15 10.6748
1 3.9685 29.2063 10.6748
1 3.97225 29.9122 9.82802
1 3.18794 29.1591 9.87433
1 4.7622 3.55271e-15 10.6748
1 5.5559 29.2063 10.6748
1 5.52966 29.949 9.84262
1 4.76967 29.1824 9.86315
1 6.3496 3.55271e-15 10.6748
1 7.1433 29.2063 10.6748
1 7.13429 29.9422 9.88054
1 6.35588 29.1816 9.90021
1 7.93701 3.55271e-15 10.6748
1 8.73071 29.2063 10.6748
1 8.7224 29.9276 9.85598
1 7.92871 29.1525 9.9061
1 9.52441 3.55271e-15 10.6748
1 10.3181 29.2063 10.6748
1 10.3322 29.91 9.85168
1 9.52932 29.1743 9.88146
1 11.1118 3.55271e-15 10.6748
1 11.9055 29.2063 10.6748
1 11.9086 29.9507 9.84823
1 11.1269 29.2042 9.8709
1 12.6992 3.55271e-15 10.6748
1 13.4929 29.2063 10.6748
1 13.471 29.9142 9.83649
1 12.6767 29.2032 9.87149
1 14.2866 3.55271e-15 10.6748
1 15.0803 29.2063 10.6748
1 15.1032 29.926 9.85743
1 14.2826 29.1895 9.89293
1 15.874 3.55271e-15 10.6748
1 16.6677 29.2063 10.6748
1 16.6875 29.9085 9.82889
1 15.8771 29.1609 9.86944
1 17.4614 3.55271e-15 10.6748
1 18.2551 29.2063 10.6748
1 18.2377 29.9093 9.84365
1 17.4667 29.138 9.8876
1 19.0488 3.55271e-15 10.6748
1 19.8425 29.2063 10.6748
1 19.861 29.9324 9.85053
1 19.0409 29.161 9.86484
1 20.6362 3.55271e-15 10.6748
1 21.4299 29.2063 10.6748
1 21.4404 29.9541 9.83421
1 20.6639 29.1705 9.87596
1 22.2236 3.55271e-15 10.6748
1 23.0173 29.2063 10.6748
1 23.0194 29.9037 9.85413
1 22.2187 29.1612 9.86045
1 23.811 3.55271e-15 10.6748
1 24.6047 29.2063 10.6748
1 24.6069 29.9328 9.84967
1 23.8307 29.1807 9.85245
1 25.3984 3.55271e-15 10.6748
1 26.1921 29.2063 10.6748
1 26.1612 29.9522 9.8598
1 25.3859 29.1815 9.85766
1 26.9858 3.55271e-15 10.6748
1 27.7795 29.2063 10.6748
1 27.7565 29.9066 9.826
1 26.934 29.174 9.88896
1 28.5732 3.55271e-15 10.6748
1 29.3669 29.2063 10.6748
1 29.2803 29.9371 9.81518
1 28.5263 29.1616 9.86736
1 30 28.4126 10.6748
1 0.793701 27.6189 10.6748
1 0.826997 28.4171 9.86311
1 0.0755677 27.6003 9.83311
1 1.5874 28.4126 10.6748
1 2.3811 27.6189 10.6748
1 2.41481 28.3951 9.87827
1 1.59466 27.613 9.87638
1 3.1748 28.4126 10.6748
1 3.9685 27.6189 10.6748
1 3.97413 28.3778 9.87291
1 3.18786 27.6151 9.88023
1 4.7622 28.4126 10.6748
1 5.5559 27.6189 10.6748
1 5.55629 28.3941 9.89978
1 4.74982 27.5879 9.86818
1 6.3496 28.4126 10.6748
1 7.1433 27.6189 10.6748
1 7.11132 28.3776 9.88404
1 6.34564 27.6058 9.85497
1 7.93701 28.4126 10.6748
1 8.73071 27.6189 10.6748
1 8.7123 28.4052 9.88546
1 7.93556 27.5975 9.89252
1 9.52441 28.4126 10.6748
1 10.3181 27.6189 10.6748
1 10.3414 28.4034 9.86528
1 9.53819 27.5956 9.87431
1 11.1118 28.4126 10.6748
1 11.9055 27.6189 10.6748
1 11.9068 28.3882 9.8856
1 11.1141 27.5977 9.87388
1 12.6992 28.4126 10.6748
1 13.4929 27.6189 10.6748
1 13.4799 28.4095 9.86149
1 12.6919 27.5765 9.89077
1 14.2866 28.4126 10.6748
1 15.0803 27.6189 10.6748
1 15.0781 28.3878 9.90636
1 14.3001 27.6006 9.87657
1 15.874 28.4126 10.6748
1 16.6677 27.6189 10.6748
1 16.6638 28.391 9.89165
1 15.8773 27.6189 9.88048
1 17.4614 28.4126 10.6748
1 18.2551 27.6189 10.6748
1 18.2559 28.3854 9.86638
1 17.4466 27.5851 9.86279
1 19.0488 28.4126 10.6748
1 19.8425 27.6189 10.6748
1 19.8292 28.3987 9.85429
1 19.0515 27.5933 9.84557
1 20.6362 28.4126 10.6748
1 21.4299 27.6189 10.6748
1 21.4302 28.3816 9.87067
1 20.6388 27.5764 9.87652
1 22.2236 28.4126 10.6748
1 23.0173 27.6189 10.6748
1 23.047 28.4048 9.87354
1 22.2361 27.6122 9.86103
1 23.811 28.4126 10.6748
1 24.6047 27.6189 10.6748
1 24.6236 28.4024 9.8991
1 23.8104 27.6035 9.89464
1 25.3984 28.4126 10.6748
1 26.1921 27.6189 10.6748
1 26.1909 28.3936 9.88967
1 25.4021 27.6094 9.87497
1 26.9858 28.4126 10.6748
1 27.7795 27.6189 10.6748
1 27.757 28.399 9.87428
1 26.975 27.6234 9.87515
1 28.5732 28.4126 10.6748
1 29.3669 27.6189 10.6748
1 29.2902 28.4204 9.8365
1 28.5229 27.6309 9.88928
1 30 26.8252 10.6748
1 0.793701 26.0315 10.6748
1 0.834385 26.8347 9.87203
1 0.0531363 26.0441 9.82927
1 1.5874 26.8252 10.6748
1 2.3811 26.0315 10.6748
1 2.37867 26.8406 9.87045
1 1.61092 26.0414 9.85914
1 3.1748 26.8252 10.6748
1 3.9685 26.0315 10.6748
1 3.97477 26.8125 9.86295
1 3.16394 26.0618 9.86482
1 4.7622 26.8252 10.6748
1 5.5559 26.0315 10.6748
1 5.55875 26.8197 9.86964
1 4.76059 26.0264 9.86491
1 6.3496 26.8252 10.6748
1 7.1433 26.0315 10.6748
1 7.12588 26.8096 9.88158
1 6.35755 26.0364 9.87707
1 7.93701 26.8252 10.6748
1 8.73071 26.0315 10.6748
1 8.75558 26.8308 9.90774
1 7.91371 26.0422 9.90542
1 9.52441 26.8252 10.6748
1 10.3181 26.0315 10.6748
1 10.3183 26.8098 9.89804
1 9.51695 26.015 9.8984
1 11.1118 26.8252 10.6748
1 11.9055 26.0315 10.6748
1 11.8907 26.8045 9.89215
1 11.1224 26.0189 9.86517
1 12.6992 26.8252 10.6748
1 13.4929 26.0315 10.6748
1 13.4908 26.809 9.89762
1 12.683 25.9965 9.87591
1 14.2866 26.8252 10.6748
1 15.0803 26.0315 10.6748
1 15.0781 26.8245 9.87291
1 14.2872 26.0334 9.88241
1 15.874 26.8252 10.6748
1 16.6677 26.0315 10.6748
1 16.675 26.8074 9.87198
1 15.8892 26.0303 9.87511
1 17.4614 26.8252 10.6748
1 18.2551 26.0315 10.6748
1 18.2644 26.8177 9.86819
1 17.4651 26.0029 9.86913
1 19.0488 26.8252 10.6748
1 19.8425 26.0315 10.6748
1 19.8186 26.8082 9.87445
1 19.0602 25.9981 9.87938
1 20.6362 26.8252 10.6748
1 21.4299 26.0315 10.6748
1 21.4409 26.8098 9.85782
1 20.6486 26.0236 9.89035
1 22.2236 26.8252 10.6748
1 23.0173 26.0315 10.6748
1 23.0237 26.8188 9.87914
1 22.2269 26.0184 9.89352
1 23.811 26.8252 10.6748
1 24.6047 26.0315 10.6748
1 24.6113 26.8402 9.87539
1 23.829 26.0446 9.84428
1 25.3984 26.8252 10.6748
1 26.1921 26.0315 10.6748
1 26.2092 26.8019 9.87475
1 25.3894 26.0444 9.88826
1 26.9858 26.8252 10.6748
1 27.7795 26.0315 10.6748
1 27.7763 26.7946 9.88241
1 26.9862 26.018 9.89057
1 28.5732 26.8252 10.6748
1 29.3669 26.0315 10.6748
1 29.2893 26.8279 9.84914
1 28.5426 26.0307 9.88062
1 30 25.2378 10.6748
1 0.793701 24.4441 10.6748
1 0.806913 25.2543 9.87197
1 0.0904839 24.4219 9.87201
1 1.5874 25.2378 10.6748
1 2.3811 24.4441 10.6748
1 2.3642 25.2294 9.86963
1 1.59976 24.4283 9.85496
1 3.1748 25.2378 10.6748
1 3.9685 24.4441 10.6748
1 3.95832 25.2724 9.89571
1 3.16196 24.4513 9.8734
1 4.7622 25.2378 10.6748
1 5.5559 24.4441 10.6748
1 5.57133 25.2379 9.88289
1 4.74818 24.4441 9.87235
1 6.3496 25.2378 10.6748
1 7.1433 24.4441 10.6748
1 7.13307 25.2438 9.87709
1 6.36148 24.4577 9.88375
1 7.93701 25.2378 10.6748
1 8.73071 24.4441 10.6748
1 8.6989 25.2434 9.91054
1 7.93139 24.4474 9.8724
1 9.52441 25.2378 10.6748
1 10.3181 24.4441 10.6748
1 10.3386 25.2232 9.88378
1 9.51101 24.4279 9.90431
1 11.1118 25.2378 10.6748
1 11.9055 24.4441 10.6748
1 11.8898 25.235 9.88781
1 11.1153 24.4308 9.86711
1 12.6992 25.2378 10.6748
1 13.4929 24.4441 10.6748
1 13.5105 25.2379 9.8723
1 12.6921 24.4425 9.86412
1 14.2866 25.2378 10.6748
1 15.0803 24.4441 10.6748
1 15.0681 25.229 9.88538
1 14.2892 24.4302 9.8672
1 15.874 25.2378 10.6748
1 16.6677 24.4441 10.6748
1 16.671 25.2269 9.86464
1 15.8686 24.4517 9.89042
1 17.4614 25.2378 10.6748
1 18.2551 24.4441 10.6748
1 18.2437 25.218 9.87253
1 17.4693 24.433 9.87769
1 19.0488 25.2378 10.6748
1 19.8425 24.4441 10.6748
1 19.8454 25.2285 9.86765
1 19.0733 24.4373 9.85924
1 20.6362 25.2378 10.6748
1 21.4299 24.4441 10.6748
1 21.4308 25.2249 9.89099
1 20.6364 24.4323 9.89705
1 22.2236 25.2378 10.6748
1 23.0173 24.4441 10.6748
1 23.0426 25.2296 9.8691
1 22.2213 24.433 9.87071
1 23.811 25.2378 10.6748
1 24.6047 24.4441 10.6748
1 24.6059 25.2286 9.89079
1 23.8213 24.4158 9.88281
1 25.3984 25.2378 10.6748
1 26.1921 24.4441 10.6748
1 26.195 25.2573 9.91151
1 25.405 24.4231 9.86579
1 26.9858 25.2378 10.6748
1 27.7795 24.4441 10.6748
1 27.7896 25.2195 9.88376
1 26.9672 24.4643 9.90455
1 28.5732 25.2378 10.6748
1 29.3669 24.4441 10.6748
1 29.2973 25.2211 9.8271
1 28.5465 24.4256 9.88152
1 30 23.6504 10.6748
1 0.793701 22.8567 10.6748
1 0.846767 23.6428 9.87028
1 0.0666117 22.8321 9.84746
1 1.5874 23.6504 10.6748
1 2.3811 22.8567 10.6748
1 2.38156 23.6365 9.89458
1 1.60751 22.8687 9.88438
1 3.1748 23.6504 10.6748
1 3.9685 22.8567 10.6748
1 3.96589 23.6701 9.8677
1 3.17541 22.8615 9.90732
1 4.7622 23.6504 10.6748
1 5.5559 22.8567 10.6748
1 5.56359 23.668 9.8678
1 4.76995 22.8642 9.88355
1 6.3496 23.6504 10.6748
1 7.1433 22.8567 10.6748
1 7.15001 23.6503 9.86125
1 6.34717 22.8335 9.89521
1 7.93701 23.6504 10.6748
1 8.73071 22.8567 10.6748
1 8.71614 23.6263 9.88331
1 7.94649 22.8545 9.88598
1 9.52441 23.6504 10.6748
1 10.3181 22.8567 10.6748
1 10.3201 23.6534 9.8826
1 9.53835 22.8453 9.9065
1 11.1118 23.6504 10.6748
1 11.9055 22.8567 10.6748
1 11.8992 23.6557 9.88069
1 11.1026 22.8833 9.90225
1 12.6992 23.6504 10.6748
1 13.4929 22.8567 10.6748
1 13.4962 23.643 9.87437
1 12.7162 22.8529 9.86461
1 14.2866 23.6504 10.6748
1 15.0803 22.8567 10.6748
1 15.0781 23.6709 9.88449
1 14.3138 22.8462 9.89691
1 15.874 23.6504 10.6748
1 16.6677 22.8567 10.6748
1 16.6657 23.6653 9.86069
1 15.8752 22.8592 9.88287
1 17.4614 23.6504 10.6748
1 18.2551 22.8567 10.6748
1 18.2879 23.6532 9.88543
1 17.4632 22.8602 9.89849
1 19.0488 23.6504 10.6748
1 19.8425 22.8567 10.6748
1 19.8564 23.6367 9.88942
1 19.0582 22.8439 9.87201
1 20.6362 23.6504 10.6748
1 21.4299 22.8567 10.6748
1 21.4216 23.6181 9.8841
1 20.6323 22.8461 9.89014
1 22.2236 23.6504 10.6748
1 23.0173 22.8567 10.6748
1 23.0233 23.6763 9.86851
1 22.222 22.8754 9.88428
1 23.811 23.6504 10.6748
1 24.6047 22.8567 10.6748
1 24.6075 23.6198 9.87389
1 23.812 22.8179 9.87568
1 25.3984 23.6504 10.6748
1 26.1921 22.8567 10.6748
1 26.209 23.6652 9.88654
1 25.408 22.8414 9.88397
1 26.9858 23.6504 10.6748
1 27.7795 22.8567 10.6748
1 27.7533 23.6582 9.87081
1 26.9796 22.8377 9.89101
1 28.5732 23.6504 10.6748
1 29.3669 22.8567 10.6748
1 29.3185 23.6343 9.86451
1 28.5164 22.8865 9.86559
1 30 22.063 10.6748
1 0.793701 21.2693 10.6748
1 0.820516 22.062 9.87409
1 0.0527156 21.2886 9.8755
1 1.5874 22.063 10.6748
1 2.3811 21.2693 10.6748
1 2.38693 22.0789 9.89705
1 1.61183 21.2848 9.89189
1 3.1748 22.063 10.6748
1 3.9685 21.2693 10.6748
1 3.99605 22.0682 9.88858
1 3.1504 21.2873 9.87562
1 4.7622 22.063 10.6748
1 5.5559 21.2693 10.6748
1 5.55814 22.0564 9.88465
1 4.77005 21.2594 9.87054
1 6.3496 22.063 10.6748
1 7.1433 21.2693 10.6748
1 7.14002 22.0461 9.88757
1 6.34102 21.2467 9.89104
1 7.93701 22.063 10.6748
1 8.73071 21.2693 10.6748
1 8.70576 22.0598 9.89044
1 7.93511 21.2535 9.86216
1 9.52441 22.063 10.6748
1 10.3181 21.2693 10.6748
1 10.327 22.0461 9.8965
1 9.50741 21.2623 9.87184
1 11.1118 22.063 10.6748
1 11.9055 21.2693 10.6748
1 11.9014 22.0609 9.87467
1 11.1219 21.27 9.89511
1 12.6992 22.063 10.6748
1 13.4929 21.2693 10.6748
1 13.4931 22.053 9.8786
1 12.6931 21.2516 9.88773
1 14.2866 22.063 10.6748
1 15.0803 21.2693 10.6748
1 15.0983 22.0551 9.89424
1 14.2886 21.278 9.90156
1 15.874 22.063 10.6748
1 16.6677 21.2693 10.6748
1 16.6831 22.0672 9.89796
1 15.8901 21.2689 9.89087
1 17.4614 22.063 10.6748
1 18.2551 21.2693 10.6748
1 18.2459 22.0599 9.88116
1 17.4253 21.2738 9.88285
1 19.0488 22.063 10.6748
1 19.8425 21.2693 10.6748
1 19.8545 22.0525 9.85669
1 19.0351 21.2423 9.91782
1 20.6362 22.063 10.6748
1 21.4299 21.2693 10.6748
1 21.43 22.0957 9.88255
1 20.6443 21.2666 9.88071
1 22.2236 22.063 10.6748
1 23.0173 21.2693 10.6748
1 23.0246 22.075 9.8903
1 22.2222 21.2492 9.89377
1 23.811 22.063 10.6748
1 24.6047 21.2693 10.6748
1 24.6085 22.065 9.87587
1 23.8249 21.276 9.89357
1 25.3984 22.063 10.6748
1 26.1921 21.2693 10.6748
1 26.2039 22.0469 9.87187
1 25.4029 21.2828 9.87519
1 26.9858 22.063 10.6748
1 27.7795 21.2693 10.6748
1 27.7574 22.0543 9.86771
1 26.9839 21.2667 9.85788
1 28.5732 22.063 10.6748
1 29.3669 21.2693 10.6748
1 29.293 22.0767 9.86863
1 28.5461 21.2772 9.86267
1 30 20.4756 10.6748
1 0.793701 19.6819 10.6748
1 0.809684 20.491 9.88398
1 0.0599945 19.6902 9.84238
1 1.5874 20.4756 10.6748
1 2.3811 19.6819 10.6748
1 2.40867 20.4668 9.8849
1 1.57943 19.6844 9.88791
1 3.1748 20.4756 10.6748
1 3.9685 19.6819 10.6748
1 3.98445 20.4719 9.89253
1 3.17016 19.661 9.88775
1 4.7622 20.4756 10.6748
1 5.5559 19.6819 10.6748
1 5.56459 20.4635 9.87284
1 4.7891 19.6645 9.8599
1 6.3496 20.4756 10.6748
1 7.1433 19.6819 10.6748
1 7.14872 20.4931 9.88403
1 6.37326 19.6928 9.87647
1 7.93701 20.4756 10.6748
1 8.73071 19.6819 10.6748
1 8.74311 20.4978 9.89417
1 7.94502 19.6805 9.88502
1 9.52441 20.4756 10.6748
1 10.3181 19.6819 10.6748
1 10.3186 20.4888 9.88613
1 9.57142 19.6572 9.88661
1 11.1118 20.4756 10.6748
1 11.9055 19.6819 10.6748
1 11.9127 20.4754 9.87785
1 11.1258 19.6978 9.87138
1 12.6992 20.4756 10.6748
1 13.4929 19.6819 10.6748
1 13.4626 20.4875 9.89449
1 12.6944 19.6811 9.87241
1 14.2866 20.4756 10.6748
1 15.0803 19.6819 10.6748
1 15.0994 20.4819 9.88186
1 14.2957 19.6954 9.8935
1 15.874 20.4756 10.6748
1 16.6677 19.6819 10.6748
1 16.6721 20.4781 9.88276
1 15.8864 19.6685 9.86417
1 17.4614 20.4756 10.6748
1 18.2551 19.6819 10.6748
1 18.2466 20.4539 9.88975
1 17.4541 19.6907 9.87699
1 19.0488 20.4756 10.6748
1 19.8425 19.6819 10.6748
1 19.8258 20.4824 9.88365
1 19.019 19.6692 9.88593
1 20.6362 20.4756 10.6748
1 21.4299 19.6819 10.6748
1 21.4104 20.4564 9.87616
1 20.6464 19.7059 9.87398
1 22.2236 20.4756 10.6748
1 23.0173 19.6819 10.6748
1 23.0401 20.4789 9.89688
1 22.213 19.6546 9.88864
1 23.811 20.4756 10.6748
1 24.6047 19.6819 10.6748
1 24.603 20.5227 9.89507
1 23.8211 19.7037 9.88459
1 25.3984 20.4756 10.6748
1 26.1921 19.6819 10.6748
1 26.2022 20.4836 9.87648
1 25.3909 19.7101 9.89907
1 26.9858 20.4756 10.6748
1 27.7795 19.6819 10.6748
1 27.7651 20.4841 9.88161
1 26.9781 19.6833 9.8847
1 28.5732 20.4756 10.6748
1 29.3669 19.6819 10.6748
1 29.3091 20.4865 9.83545
1 28.5368 19.7114 9.88405
1 30 18.8882 10.6748
1 0.793701 18.0945 10.6748
1 0.820663 18.8801 9.87485
1 0.0732702 18.082 9.85613
1 1.5874 18.8882 10.6748
1 2.3811 18.0945 10.6748
1 2.38337 18.8861 9.85172
1 1.57793 18.1232 9.86959
1 3.1748 18.8882 10.6748
1 3.9685 18.0945 10.6748
1 3.9815 18.8784 9.8974
1 3.1735 18.119 9.86992
1 4.7622 18.8882 10.6748
1 5.5559 18.0945 10.6748
1 5.5835 18.8688 9.86889
1 4.77639 18.1069 9.90805
1 6.3496 18.8882 10.6748
1 7.1433 18.0945 10.6748
1 7.13 18.8976 9.88099
1 6.37211 18.0786 9.88222
1 7.93701 18.8882 10.6748
1 8.73071 18.0945 10.6748
1 8.73505 18.8925 9.88369
1 7.95487 18.0857 9.86997
1 9.52441 18.8882 10.6748
1 10.3181 18.0945 10.6748
1 10.3342 18.8833 9.86259
1 9.54324 18.0946 9.89253
1 11.1118 18.8882 10.6748
1 11.9055 18.0945 10.6748
1 11.9348 18.8966 9.86228
1 11.1373 18.1009 9.89049
1 12.6992 18.8882 10.6748
1 13.4929 18.0945 10.6748
1 13.4648 18.8811 9.88632
1 12.6957 18.0856 9.88553
1 14.2866 18.8882 10.6748
1 15.0803 18.0945 10.6748
1 15.0886 18.9075 9.88277
1 14.3334 18.0901 9.86764
1 15.874 18.8882 10.6748
1 16.6677 18.0945 10.6748
1 16.6638 18.9091 9.87645
1 15.8868 18.0902 9.86882
1 17.4614 18.8882 10.6748
1 18.2551 18.0945 10.6748
1 18.2368 18.8791 9.87189
1 17.4347 18.1079 9.89027
1 19.0488 18.8882 10.6748
1 19.8425 18.0945 10.6748
1 19.8591 18.9198 9.88851
1 19.0277 18.1101 9.88061
1 20.6362 18.8882 10.6748
1 21.4299 18.0945 10.6748
1 21.4294 18.8807 9.88073
1 20.62 18.0886 9.87169
1 22.2236 18.8882 10.6748
1 23.0173 18.0945 10.6748
1 23.037 18.8837 9.90691
1 22.2481 18.0934 9.89347
1 23.811 18.8882 10.6748
1 24.6047 18.0945 10.6748
1 24.5987 18.8766 9.88327
1 23.8379 18.07 9.896
1 25.3984 18.8882 10.6748
1 26.1921 18.0945 10.6748
1 26.1807 18.9254 9.84905
1 25.4112 18.0941 9.85387
1 26.9858 18.8882 10.6748
1 27.7795 18.0945 10.6748
1 27.7729 18.8866 9.89382
1 26.9771 18.1159 9.90176
1 28.5732 18.8882 10.6748
1 29.3669 18.0945 10.6748
1 29.2967 18.8782 9.87259
1 28.5436 18.0845 9.89115
1 30 17.3008 10.6748
1 0.793701 16.5071 10.6748
1 0.828979 17.3108 9.88694
1 0.0708599 16.5144 9.86576
1 1.5874 17.3008 10.6748
1 2.3811 16.5071 10.6748
1 2.37903 17.3272 9.89221
1 1.6247 16.4978 9.86035
1 3.1748 17.3008 10.6748
1 3.9685 16.5071 10.6748
1 3.97937 17.3131 9.86575
1 3.18115 16.4992 9.88679
1 4.7622 17.3008 10.6748
1 5.5559 16.5071 10.6748
1 5.54245 17.3382 9.89288
1 4.77235 16.5081 9.88432
1 6.3496 17.3008 10.6748
1 7.1433 16.5071 10.6748
1 7.14447 17.3219 9.88856
1 6.3482 16.5096 9.90517
1 7.93701 17.3008 10.6748
1 8.73071 16.5071 10.6748
1 8.71527 17.3177 9.90354
1 7.93168 16.5043 9.86679
1 9.52441 17.3008 10.6748
1 10.3181 16.5071 10.6748
1 10.3258 17.3201 9.8826
1 9.5359 16.5247 9.88496
1 11.1118 17.3008 10.6748
1 11.9055 16.5071 10.6748
1 11.9226 17.3241 9.86894
1 11.1048 16.5352 9.90529
1 12.6992 17.3008 10.6748
1 13.4929 16.5071 10.6748
1 13.5026 17.2835 9.86879
1 12.7337 16.5149 9.8591
1 14.2866 17.3008 10.6748
1 15.0803 16.5071 10.6748
1 15.0963 17.3422 9.87519
1 14.2865 16.5163 9.89372
1 15.874 17.3008 10.6748
1 16.6677 16.5071 10.6748
1 16.6613 17.2922 9.88366
1 15.8842 16.4776 9.88143
1 17.4614 17.3008 10.6748
1 18.2551 16.5071 10.6748
1 18.2497 17.3117 9.87905
1 17.4436 16.4878 9.8622
1 19.0488 17.3008 10.6748
1 19.8425 16.5071 10.6748
1 19.8455 17.2933 9.88361
1 19.0621 16.4868 9.86001
1 20.6362 17.3008 10.6748
1 21.4299 16.5071 10.6748
1 21.4261 17.2929 9.9044
1 20.651 16.4885 9.87412
1 22.2236 17.3008 10.6748
1 23.0173 16.5071 10.6748
1 23.0285 17.2926 9.8808
1 22.2334 16.4944 9.90524
1 23.811 17.3008 10.6748
1 24.6047 16.5071 10.6748
1 24.6145 17.3033 9.87222
1 23.8161 16.4925 9.88159
1 25.3984 17.3008 10.6748
1 26.1921 16.5071 10.6748
1 26.191 17.2955 9.87776
1 25.4121 16.4996 9.88265
1 26.9858 17.3008 10.6748
1 27.7795 16.5071 10.6748
1 27.7714 17.2633 9.87974
1 26.9659 16.5082 9.88548
1 28.5732 17.3008 10.6748
1 29.3669 16.5071 10.6748
1 29.3132 17.2883 9.85144
1 28.5334 16.5062 9.9023
1 30 15.7134 10.6748
1 0.793701 14.9197 10.6748
1 0.840151 15.7369 9.85361
1 0.076968 14.9154 9.85334
1 1.5874 15.7134 10.6748
1 2.3811 14.9197 10.6748
1 2.38777 15.7327 9.88387
1 1.60381 14.9404 9.88966
1 3.1748 15.7134 10.6748
1 3.9685 14.9197 10.6748
1 3.97358 15.7067 9.88826
1 3.17285 14.9476 9.89724
1 4.7622 15.7134 10.6748
1 5.5559 14.9197 10.6748
1 5.57596 15.7192 9.89397
1 4.80009 14.9207 9.88789
1 6.3496 15.7134 10.6748
1 7.1433 14.9197 10.6748
1 7.14786 15.7157 9.85893
1 6.357 14.9349 9.88247
1 7.93701 15.7134 10.6748
1 8.73071 14.9197 10.6748
1 8.73121 15.7233 9.86279
1 7.93046 14.8975 9.89077
1 9.52441 15.7134 10.6748
1 10.3181 14.9197 10.6748
1 10.3355 15.7186 9.87799
1 9.53383 14.9114 9.89739
1 11.1118 15.7134 10.6748
1 11.9055 14.9197 10.6748
1 11.914 15.7215 9.86766
1 11.1297 14.9325 9.89722
1 12.6992 15.7134 10.6748
1 13.4929 14.9197 10.6748
1 13.4904 15.7244 9.88711
1 12.7217 14.941 9.89214
1 14.2866 15.7134 10.6748
1 15.0803 14.9197 10.6748
1 15.0874 15.7061 9.90241
1 14.2893 14.9193 9.87707
1 15.874 15.7134 10.6748
1 16.6677 14.9197 10.6748
1 16.676 15.719 9.86516
1 15.879 14.9168 9.87512
1 17.4614 15.7134 10.6748
1 18.2551 14.9197 10.6748
1 18.2757 15.7102 9.86725
1 17.4712 14.9236 9.89099
1 19.0488 15.7134 10.6748
1 19.8425 14.9197 10.6748
1 19.859 15.693 9.87767
1 19.044 14.9143 9.8857
1 20.6362 15.7134 10.6748
1 21.4299 14.9197 10.6748
1 21.4186 15.7085 9.86816
1 20.6341 14.9077 9.8767
1 22.2236 15.7134 10.6748
1 23.0173 14.9197 10.6748
1 23.006 15.7186 9.90439
1 22.2149 14.9477 9.86989
1 23.811 15.7134 10.6748
1 24.6047 14.9197 10.6748
1 24.602 15.7057 9.89996
1 23.8131 14.9166 9.89776
1 25.3984 15.7134 10.6748
1 26.1921 14.9197 10.6748
1 26.1734 15.7046 9.91307
1 25.3965 14.9086 9.89274
1 26.9858 15.7134 10.6748
1 27.7795 14.9197 10.6748
1 27.7709 15.6918 9.8799
1 26.9735 14.9195 9.86956
1 28.5732 15.7134 10.6748
1 29.3669 14.9197 10.6748
1 29.2967 15.7051 9.84273
1 28.5756 14.8917 9.90795
1 30 14.126 10.6748
1 0.793701 13.3323 10.6748
1 0.833716 14.1069 9.85811
1 0.0509345 13.346 9.85269
1 1.5874 14.126 10.6748
1 2.3811 13.3323 10.6748
1 2.38403 14.1143 9.86208
1 1.61795 13.3294 9.84703
1 3.1748 14.126 10.6748
1 3.9685 13.3323 10.6748
1 3.97632 14.1208 9.859
1 3.20598 13.3307 9.88377
1 4.7622 14.126 10.6748
1 5.5559 13.3323 10.6748
1 5.56782 14.1145 9.88321
1 4.77007 13.3573 9.89643
1 6.3496 14.126 10.6748
1 7.1433 13.3323 10.6748
1 7.14971 14.1137 9.90757
1 6.35236 13.334 9.89639
1 7.93701 14.126 10.6748
1 8.73071 13.3323 10.6748
1 8.75715 14.1492 9.87888
1 7.92632 13.3415 9.87275
1 9.52441 14.126 10.6748
1 10.3181 13.3323 10.6748
1 10.3326 14.1289 9.90227
1 9.51209 13.3365 9.86379
1 11.1118 14.126 10.6748
1 11.9055 13.3323 10.6748
1 11.9201 14.1387 9.89088
1 11.1429 13.3428 9.87907
1 12.6992 14.126 10.6748
1 13.4929 13.3323 10.6748
1 13.501 14.1355 9.87959
1 12.7269 13.3433 9.85833
1 14.2866 14.126 10.6748
1 15.0803 13.3323 10.6748
1 15.0645 14.111 9.87053
1 14.274 13.3176 9.88446
1 15.874 14.126 10.6748
1 16.6677 13.3323 10.6748
1 16.6629 14.1064 9.89422
1 15.8928 13.3233 9.88633
1 17.4614 14.126 10.6748
1 18.2551 13.3323 10.6748
1 18.2611 14.1476 9.92872
1 17.4722 13.3413 9.88463
1 19.0488 14.126 10.6748
1 19.8425 13.3323 10.6748
1 19.862 14.1383 9.8978
1 19.0454 13.346 9.88062
1 20.6362 14.126 10.6748
1 21.4299 13.3323 10.6748
1 21.4195 14.1262 9.89255
1 20.6353 13.316 9.8889
1 22.2236 14.126 10.6748
1 23.0173 13.3323 10.6748
1 23.0302 14.1146 9.86886
1 22.228 13.3529 9.90393
1 23.811 14.126 10.6748
1 24.6047 13.3323 10.6748
1 24.5986 14.1154 9.89087
1 23.8068 13.3341 9.87994
1 25.3984 14.126 10.6748
1 26.1921 13.3323 10.6748
1 26.2083 14.124 9.9
1 25.3913 13.3342 9.89144
1 26.9858 14.126 10.6748
1 27.7795 13.3323 10.6748
1 27.763 14.1219 9.87906
1 26.9891 13.3283 9.87385
1 28.5732 14.126 10.6748
1 29.3669 13.3323 10.6748
1 29.2851 14.1225 9.86371
1 28.5317 13.3077 9.86017
1 30 12.5386 10.6748
1 0.793701 11.7449 10.6748
1 0.831943 12.5327 9.87395
1 0.0498897 11.7454 9.86638
1 1.5874 12.5386 10.6748
1 2.3811 11.7449 10.6748
1 2.38778 12.5409 9.885
1 1.59986 11.7359 9.89633
1 3.1748 12.5386 10.6748
1 3.9685 11.7449 10.6748
1 3.97992 12.5429 9.87325
1 3.1944 11.7343 9.88198
1 4.7622 12.5386 10.6748
1 5.5559 11.7449 10.6748
1 5.55612 12.531 9.87092
1 4.78971 11.7565 9.88797
1 6.3496 12.5386 10.6748
1 7.1433 11.7449 10.6748
1 7.12721 12.5295 9.8914
1 6.36154 11.7336 9.89052
1 7.93701 12.5386 10.6748
1 8.73071 11.7449 10.6748
1 8.72142 12.5528 9.89522
1 7.9505 11.7581 9.87093
1 9.52441 12.5386 10.6748
1 10.3181 11.7449 10.6748
1 10.3097 12.5401 9.86116
1 9.4994 11.7563 9.8689
1 11.1118 12.5386 10.6748
1 11.9055 11.7449 10.6748
1 11.9282 12.5195 9.87374
1 11.1133 11.7643 9.87178
1 12.6992 12.5386 10.6748
1 13.4929 11.7449 10.6748
1 13.5117 12.5142 9.88447
1 12.6557 11.7281 9.89878
1 14.2866 12.5386 10.6748
1 15.0803 11.7449 10.6748
1 15.1031 12.5728 9.87534
1 14.3052 11.7393 9.87072
1 15.874 12.5386 10.6748
1 16.6677 11.7449 10.6748
1 16.679 12.5288 9.8662
1 15.8892 11.7183 9.86299
1 17.4614 12.5386 10.6748
1 18.2551 11.7449 10.6748
1 18.265 12.5305 9.87744
1 17.4577 11.7264 9.87429
1 19.0488 12.5386 10.6748
1 19.8425 11.7449 10.6748
1 19.8598 12.5552 9.86851
1 19.0558 11.7647 9.88393
1 20.6362 12.5386 10.6748
1 21.4299 11.7449 10.6748
1 21.4242 12.5475 9.86526
1 20.6379 11.7263 9.89194
1 22.2236 12.5386 10.6748
1 23.0173 11.7449 10.6748
1 23.0334 12.5449 9.88842
1 22.2232 11.7561 9.897
1 23.811 12.5386 10.6748
1 24.6047 11.7449 10.6748
1 24.5818 12.5488 9.894
1 23.8306 11.7458 9.88319
1 25.3984 12.5386 10.6748
1 26.1921 11.7449 10.6748
1 26.2024 12.544 9.91303
1 25.3893 11.7282 9.89751
1 26.9858 12.5386 10.6748
1 27.7795 11.7449 10.6748
1 27.7607 12.5203 9.88929
1 26.9571 11.7398 9.87267
1 28.5732 12.5386 10.6748
1 29.3669 11.7449 10.6748
1 29.3104 12.5264 9.85525
1 28.5648 11.7436 9.88641
1 30 10.9512 10.6748
1 0.793701 10.1575 10.6748
1 0.80907 10.9338 9.88845
1 0.0639829 10.1401 9.84394
1 1.5874 10.9512 10.6748
1 2.3811 10.1575 10.6748
1 2.38235 10.9546 9.88414
1 1.5835 10.1628 9.87455
1 3.1748 10.9512 10.6748
1 3.9685 10.1575 10.6748
1 4.01247 10.9489 9.88344
1 3.14753 10.164 9.90108
1 4.7622 10.9512 10.6748
1 5.5559 10.1575 10.6748
1 5.55277 10.93 9.88777
1 4.76511 10.1562 9.85801
1 6.3496 10.9512 10.6748
1 7.1433 10.1575 10.6748
1 7.18767 10.9381 9.89179
1 6.37503 10.1718 9.88485
1 7.93701 10.9512 10.6748
1 8.73071 10.1575 10.6748
1 8.72229 10.9666 9.91383
1 7.93403 10.1405 9.90975
1 9.52441 10.9512 10.6748
1 10.3181 10.1575 10.6748
1 10.3029 10.9637 9.89449
1 9.53671 10.1516 9.86974
1 11.1118 10.9512 10.6748
1 11.9055 10.1575 10.6748
1 11.891 10.9505 9.85791
1 11.1211 10.1375 9.89007
1 12.6992 10.9512 10.6748
1 13.4929 10.1575 10.6748
1 13.4833 10.9358 9.89785
1 12.7041 10.1692 9.89306
1 14.2866 10.9512 10.6748
1 15.0803 10.1575 10.6748
1 15.0837 10.9329 9.90229
1 14.2887 10.1361 9.90069
1 15.874 10.9512 10.6748
1 16.6677 10.1575 10.6748
1 16.6774 10.9301 9.881
1 15.885 10.1405 9.87257
1 17.4614 10.9512 10.6748
1 18.2551 10.1575 10.6748
1 18.267 10.9308 9.87905
1 17.4665 10.1424 9.87292
1 19.0488 10.9512 10.6748
1 19.8425 10.1575 10.6748
1 19.8533 10.9575 9.88478
1 19.0556 10.1483 9.88361
1 20.6362 10.9512 10.6748
1 21.4299 10.1575 10.6748
1 21.435 10.9524 9.87596
1 20.6253 10.1723 9.89341
1 22.2236 10.9512 10.6748
1 23.0173 10.1575 10.6748
1 23.0183 10.9441 9.88051
1 22.2278 10.1486 9.91289
1 23.811 10.9512 10.6748
1 24.6047 10.1575 10.6748
1 24.5991 10.9737 9.89335
1 23.7852 10.1644 9.89263
1 25.3984 10.9512 10.6748
1 26.1921 10.1575 10.6748
1 26.1664 10.9427 9.90221
1 25.3857 10.1592 9.89487
1 26.9858 10.9512 10.6748
1 27.7795 10.1575 10.6748
1 27.7471 10.9539 9.87123
1 26.965 10.1423 9.87596
1 28.5732 10.9512 10.6748
1 29.3669 10.1575 10.6748
1 29.309 10.9557 9.85919
1 28.5336 10.153 9.89066
1 30 9.36379 10.6748
1 0.793701 8.57009 10.6748
1 0.800248 9.37475 9.86494
1 0.0605532 8.58048 9.85871
1 1.5874 9.36379 10.6748
1 2.3811 8.57009 10.6748
1 2.37536 9.36184 9.87302
1 1.58639 8.58846 9.88196
1 3.1748 9.36379 10.6748
1 3.9685 8.57009 10.6748
1 3.9545 9.38824 9.88538
1 3.17609 8.57392 9.89151
1 4.7622 9.36379 10.6748
1 5.5559 8.57009 10.6748
1 5.536 9.36984 9.87902
1 4.76809 8.5635 9.85845
1 6.3496 9.36379 10.6748
1 7.1433 8.57009 10.6748
1 7.14088 9.34696 9.865
1 6.34353 8.57799 9.86796
1 7.93701 9.36379 10.6748
1 8.73071 8.57009 10.6748
1 8.74377 9.36041 9.89934
1 7.92994 8.55533 9.88133
1 9.52441 9.36379 10.6748
1 10.3181 8.57009 10.6748
1 10.2979 9.36768 9.89565
1 9.5217 8.56769 9.88387
1 11.1118 9.36379 10.6748
1 11.9055 8.57009 10.6748
1 11.9212 9.37213 9.88406
1 11.1188 8.57213 9.86393
1 12.6992 9.36379 10.6748
1 13.4929 8.57009 10.6748
1 13.4894 9.34393 9.89088
1 12.6791 8.5521 9.89564
1 14.2866 9.36379 10.6748
1 15.0803 8.57009 10.6748
1 15.0836 9.33237 9.86801
1 14.2693 8.55475 9.90261
1 15.874 9.36379 10.6748
1 16.6677 8.57009 10.6748
1 16.685 9.36319 9.86379
1 15.8767 8.56773 9.90319
1 17.4614 9.36379 10.6748
1 18.2551 8.57009 10.6748
1 18.2545 9.3453 9.87715
1 17.481 8.54852 9.85393
1 19.0488 9.36379 10.6748
1 19.8425 8.57009 10.6748
1 19.8492 9.34961 9.89217
1 19.0538 8.57197 9.8331
1 20.6362 9.36379 10.6748
1 21.4299 8.57009 10.6748
1 21.4331 9.36047 9.87348
1 20.6453 8.59008 9.88148
1 22.2236 9.36379 10.6748
1 23.0173 8.57009 10.6748
1 23.0126 9.38262 9.87949
1 22.2078 8.59253 9.87679
1 23.811 9.36379 10.6748
1 24.6047 8.57009 10.6748
1 24.5923 9.36876 9.90316
1 23.7875 8.58512 9.89317
1 25.3984 9.36379 10.6748
1 26.1921 8.57009 10.6748
1 26.1868 9.35138 9.88457
1 25.387 8.58832 9.9024
1 26.9858 9.36379 10.6748
1 27.7795 8.57009 10.6748
1 27.7565 9.38854 9.87702
1 26.9918 8.58125 9.87174
1 28.5732 9.36379 10.6748
1 29.3669 8.57009 10.6748
1 29.268 9.36252 9.85384
1 28.5211 8.5606 9.88115
1 30 7.77639 10.6748
1 0.793701 6.98268 10.6748
1 0.816499 7.78041 9.88578
1 0.0652995 6.97499 9.85845
1 1.5874 7.77639 10.6748
1 2.3811 6.98268 10.6748
1 2.3792 7.80712 9.89246
1 1.60547 6.98467 9.86469
1 3.1748 7.77639 10.6748
1 3.9685 6.98268 10.6748
1 3.98529 7.79171 9.89399
1 3.19028 6.9693 9.88521
1 4.7622 7.77639 10.6748
1 5.5559 6.98268 10.6748
1 5.55616 7.7505 9.85438
1 4.73799 6.97729 9.85811
1 6.3496 7.77639 10.6748
1 7.1433 6.98268 10.6748
1 7.13409 7.76767 9.90439
1 6.35499 6.97469 9.89575
1 7.93701 7.77639 10.6748
1 8.73071 6.98268 10.6748
1 8.7453 7.7788 9.87661
1 7.9548 6.97196 9.85527
1 9.52441 7.77639 10.6748
1 10.3181 6.98268 10.6748
1 10.331 7.79401 9.87736
1 9.50263 6.99093 9.88666
1 11.1118 7.77639 10.6748
1 11.9055 6.98268 10.6748
1 11.9041 7.79522 9.87027
1 11.0934 7.00615 9.87993
1 12.6992 7.77639 10.6748
1 13.4929 6.98268 10.6748
1 13.4947 7.78202 9.86049
1 12.6866 7.01554 9.86552
1 14.2866 7.77639 10.6748
1 15.0803 6.98268 10.6748
1 15.0512 7.7749 9.8966
1 14.2631 6.97051 9.88941
1 15.874 7.77639 10.6748
1 16.6677 6.98268 10.6748
1 16.6557 7.76586 9.86744
1 15.8662 6.97191 9.85264
1 17.4614 7.77639 10.6748
1 18.2551 6.98268 10.6748
1 18.2998 7.77701 9.8776
1 17.4653 7.00811 9.88186
1 19.0488 7.77639 10.6748
1 19.8425 6.98268 10.6748
1 19.8695 7.77432 9.88176
1 19.0511 7.01661 9.86979
1 20.6362 7.77639 10.6748
1 21.4299 6.98268 10.6748
1 21.4422 7.78078 9.87663
1 20.6507 7.02175 9.89988
1 22.2236 7.77639 10.6748
1 23.0173 6.98268 10.6748
1 22.9981 7.78162 9.88329
1 22.1969 6.97519 9.87709
1 23.811 7.77639 10.6748
1 24.6047 6.98268 10.6748
1 24.5885 7.75975 9.89253
1 23.7955 6.95591 9.87683
1 25.3984 7.77639 10.6748
1 26.1921 6.98268 10.6748
1 26.2045 7.77324 9.84502
1 25.4096 6.96703 9.88378
1 26.9858 7.77639 10.6748
1 27.7795 6.98268 10.6748
1 27.7846 7.78797 9.88405
1 27.002 6.97847 9.87458
1 28.5732 7.77639 10.6748
1 29.3669 6.98268 10.6748
1 29.3038 7.7848 9.85267
1 28.5546 6.98999 9.86571
1 30 6.18898 10.6748
1 0.793701 5.39528 10.6748
1 0.854746 6.17074 9.86366
1 0.0492442 5.3852 9.8442
1 1.5874 6.18898 10.6748
1 2.3811 5.39528 10.6748
1 2.39256 6.18669 9.8829
1 1.58962 5.38344 9.90977
1 3.1748 6.18898 10.6748
1 3.9685 5.39528 10.6748
1 3.98822 6.1956 9.86608
1 3.19632 5.39577 9.88075
1 4.7622 6.18898 10.6748
1 5.5559 5.39528 10.6748
1 5.54899 6.20796 9.89757
1 4.78414 5.37741 9.87891
1 6.3496 6.18898 10.6748
1 7.1433 5.39528 10.6748
1 7.15171 6.15945 9.85655
1 6.32732 5.39948 9.90103
1 7.93701 6.18898 10.6748
1 8.73071 5.39528 10.6748
1 8.75039 6.19828 9.88233
1 7.95696 5.40912 9.88761
1 9.52441 6.18898 10.6748
1 10.3181 5.39528 10.6748