9376
Atoms. Timestep: 4000000
1 0.0075 3.55271e-15 10.5975
1 0.801201 29.2063 10.5975
1 0.84076 29.9351 9.75425
1 0.0952214 29.1864 9.75712
1 1.5949 3.55271e-15 10.5975
1 2.3886 29.2063 10.5975
1 2.40348 29.9178 9.75197
1 1.59811 29.1705 9.83181
1 3.1823 3.55271e-15 10.5975
1 3.976 29.2063 10.5975
1 3.98792 29.9133 9.74381
1 3.14696 29.1958 9.78484
1 4.7697 3.55271e-15 10.5975
1 5.5634 29.2063 10.5975
1 5.56258 29.9214 9.79371
1 4.77056 29.1906 9.79569
1 6.3571 3.55271e-15 10.5975
1 7.1508 29.2063 10.5975
1 7.16594 29.9237 9.76563
1 6.35955 29.1609 9.78081
1 7.94451 3.55271e-15 10.5975
1 8.73821 29.2063 10.5975
1 8.72608 29.9448 9.75516
1 7.93619 29.164 9.80046
1 9.53191 3.55271e-15 10.5975
1 10.3256 29.2063 10.5975
1 10.3054 29.9247 9.73819
1 9.49853 29.1898 9.81725
1 11.1193 3.55271e-15 10.5975
1 11.913 29.2063 10.5975
1 11.9008 29.9416 9.78064
1 11.0841 29.1822 9.79781
1 12.7067 3.55271e-15 10.5975
1 13.5004 29.2063 10.5975
1 13.5105 29.9519 9.75755
1 12.7101 29.1897 9.79832
1 14.2941 3.55271e-15 10.5975
1 15.0878 29.2063 10.5975
1 15.0972 29.9392 9.78555
1 14.3152 29.1734 9.79471
1 15.8815 3.55271e-15 10.5975
1 16.6752 29.2063 10.5975
1 16.6601 29.9098 9.76918
1 15.8771 29.1504 9.74819
1 17.4689 3.55271e-15 10.5975
1 18.2626 29.2063 10.5975
1 18.2699 29.9296 9.77403
1 17.4738 29.1629 9.78679
1 19.0563 3.55271e-15 10.5975
1 19.85 29.2063 10.5975
1 19.8459 29.9363 9.76827
1 19.0337 29.1881 9.78653
1 20.6437 3.55271e-15 10.5975
1 21.4374 29.2063 10.5975
1 21.4487 29.9474 9.78818
1 20.6462 29.1864 9.80496
1 22.2311 3.55271e-15 10.5975
1 23.0248 29.2063 10.5975
1 23.0163 29.9325 9.76897
1 22.2357 29.1885 9.79346
1 23.8185 3.55271e-15 10.5975
1 24.6122 29.2063 10.5975
1 24.6263 29.9275 9.75209
1 23.8232 29.1829 9.79789
1 25.4059 3.55271e-15 10.5975
1 26.1996 29.2063 10.5975
1 26.2024 29.9365 9.75965
1 25.3863 29.1598 9.79096
1 26.9933 3.55271e-15 10.5975
1 27.787 29.2063 10.5975
1 27.7798 29.9067 9.76442
1 26.9812 29.1737 9.81169
1 28.5807 3.55271e-15 10.5975
1 29.3744 29.2063 10.5975
1 29.3293 29.9412 9.73674
1 28.556 29.2017 9.78145
1 0.0075 28.4126 10.5975
1 0.801201 27.6189 10.5975
1 0.823309 28.3877 9.82323
1 0.0925691 27.6005 9.76008
1 1.5949 28.4126 10.5975
1 2.3886 27.6189 10.5975
1 2.40965 28.3951 9.80413
1 1.598 27.6332 9.82057
1 3.1823 28.4126 10.5975
1 3.976 27.6189 10.5975
1 3.96725 28.3827 9.78576
1 3.21038 27.6165 9.78537
1 4.7697 28.4126 10.5975
1 5.5634 27.6189 10.5975
1 5.55039 28.3892 9.82588
1 4.76422 27.5917 9.81476
1 6.3571 28.4126 10.5975
1 7.1508 27.6189 10.5975
1 7.14627 28.3959 9.80223
1 6.35031 27.6224 9.81125
1 7.94451 28.4126 10.5975
1 8.73821 27.6189 10.5975
1 8.72969 28.4065 9.79803
1 7.95285 27.6322 9.81287
1 9.53191 28.4126 10.5975
1 10.3256 27.6189 10.5975
1 10.3107 28.3927 9.79973
1 9.52848 27.6293 9.80672
1 11.1193 28.4126 10.5975
1 11.913 27.6189 10.5975
1 11.9172 28.4085 9.79372
1 11.1341 27.5883 9.83609
1 12.7067 28.4126 10.5975
1 13.5004 27.6189 10.5975
1 13.4989 28.4004 9.79549
1 12.6964 27.5967 9.80211
1 14.2941 28.4126 10.5975
1 15.0878 27.6189 10.5975
1 15.0944 28.3972 9.78559
1 14.2991 27.606 9.81274
1 15.8815 28.4126 10.5975
1 16.6752 27.6189 10.5975
1 16.6575 28.4064 9.80408
1 15.892 27.6196 9.79614
1 17.4689 28.4126 10.5975
1 18.2626 27.6189 10.5975
1 18.2703 28.3846 9.79647
1 17.4623 27.6088 9.79117
1 19.0563 28.4126 10.5975
1 19.85 27.6189 10.5975
1 19.8468 28.4043 9.78915
1 19.0466 27.5732 9.80892
1 20.6437 28.4126 10.5975
1 21.4374 27.6189 10.5975
1 21.4249 28.3799 9.80911
1 20.6312 27.5884 9.82084
1 22.2311 28.4126 10.5975
1 23.0248 27.6189 10.5975
1 23.0259 28.3703 9.79326
1 22.219 27.6079 9.80252
1 23.8185 28.4126 10.5975
1 24.6122 27.6189 10.5975
1 24.6082 28.4096 9.80253
1 23.8318 27.6101 9.81819
1 25.4059 28.4126 10.5975
1 26.1996 27.6189 10.5975
1 26.1687 28.3935 9.84104
1 25.4049 27.6425 9.81341
1 26.9933 28.4126 10.5975
1 27.787 27.6189 10.5975
1 27.7882 28.4192 9.78112
1 26.9662 27.626 9.79518
1 28.5807 28.4126 10.5975
1 29.3744 27.6189 10.5975
1 29.3237 28.3821 9.76229
1 28.5232 27.5831 9.78173
1 0.0075 26.8252 10.5975
1 0.801201 26.0315 10.5975
1 0.808821 26.8596 9.77726
1 0.0596279 26.0201 9.77559
1 1.5949 26.8252 10.5975
1 2.3886 26.0315 10.5975
1 2.37473 26.8458 9.82735
1 1.58894 26.064 9.8124
1 3.1823 26.8252 10.5975
1 3.976 26.0315 10.5975
1 3.98083 26.8209 9.80946
1 3.19782 26.0335 9.80353
1 4.7697 26.8252 10.5975
1 5.5634 26.0315 10.5975
1 5.58832 26.824 9.78517
1 4.75653 26.0111 9.78228
1 6.3571 26.8252 10.5975
1 7.1508 26.0315 10.5975
1 7.14124 26.854 9.81487
1 6.33857 26.0431 9.78577
1 7.94451 26.8252 10.5975
1 8.73821 26.0315 10.5975
1 8.74513 26.8327 9.80745
1 7.92699 26.044 9.79328
1 9.53191 26.8252 10.5975
1 10.3256 26.0315 10.5975
1 10.3067 26.8209 9.79153
1 9.52694 26.0172 9.83087
1 11.1193 26.8252 10.5975
1 11.913 26.0315 10.5975
1 11.9135 26.8154 9.80613
1 11.1383 26.0264 9.79549
1 12.7067 26.8252 10.5975
1 13.5004 26.0315 10.5975
1 13.4908 26.8225 9.80692
1 12.7208 26.0048 9.82354
1 14.2941 26.8252 10.5975
1 15.0878 26.0315 10.5975
1 15.1093 26.8344 9.79673
1 14.3031 26.0335 9.79741
1 15.8815 26.8252 10.5975
1 16.6752 26.0315 10.5975
1 16.6847 26.833 9.81114
1 15.8953 26.0277 9.79286
1 17.4689 26.8252 10.5975
1 18.2626 26.0315 10.5975
1 18.266 26.7998 9.81509
1 17.4776 25.9993 9.82438
1 19.0563 26.8252 10.5975
1 19.85 26.0315 10.5975
1 19.8345 26.8111 9.81806
1 19.0393 26.0359 9.82859
1 20.6437 26.8252 10.5975
1 21.4374 26.0315 10.5975
1 21.4304 26.8174 9.79808
1 20.6599 26.0277 9.80754
1 22.2311 26.8252 10.5975
1 23.0248 26.0315 10.5975
1 23.0186 26.807 9.82859
1 22.2412 26.0189 9.80062
1 23.8185 26.8252 10.5975
1 24.6122 26.0315 10.5975
1 24.5961 26.8098 9.82942
1 23.8308 26.0217 9.83066
1 25.4059 26.8252 10.5975
1 26.1996 26.0315 10.5975
1 26.1855 26.8098 9.80656
1 25.4097 26.0372 9.84458
1 26.9933 26.8252 10.5975
1 27.787 26.0315 10.5975
1 27.7563 26.7931 9.81503
1 26.9837 26.0381 9.79801
1 28.5807 26.8252 10.5975
1 29.3744 26.0315 10.5975
1 29.3042 26.7995 9.76752
1 28.5281 26.0269 9.80823
1 0.0075 25.2378 10.5975
1 0.801201 24.4441 10.5975
1 0.814431 25.2459 9.80434
1 0.0584437 24.4184 9.76695
1 1.5949 25.2378 10.5975
1 2.3886 24.4441 10.5975
1 2.41584 25.2372 9.79714
1 1.61802 24.4306 9.79273
1 3.1823 25.2378 10.5975
1 3.976 24.4441 10.5975
1 3.98784 25.2586 9.79824
1 3.20969 24.4441 9.8039
1 4.7697 25.2378 10.5975
1 5.5634 24.4441 10.5975
1 5.55907 25.2376 9.80993
1 4.75661 24.4539 9.81943
1 6.3571 25.2378 10.5975
1 7.1508 24.4441 10.5975
1 7.15339 25.2541 9.81755
1 6.35761 24.4416 9.83132
1 7.94451 25.2378 10.5975
1 8.73821 24.4441 10.5975
1 8.73987 25.2415 9.80435
1 7.95488 24.4355 9.81471
1 9.53191 25.2378 10.5975
1 10.3256 24.4441 10.5975
1 10.3523 25.2327 9.81008
1 9.53597 24.4444 9.8196
1 11.1193 25.2378 10.5975
1 11.913 24.4441 10.5975
1 11.9272 25.2175 9.81454
1 11.1209 24.4375 9.80852
1 12.7067 25.2378 10.5975
1 13.5004 24.4441 10.5975
1 13.5154 25.2406 9.8093
1 12.745 24.4116 9.81514
1 14.2941 25.2378 10.5975
1 15.0878 24.4441 10.5975
1 15.1006 25.2428 9.81229
1 14.2728 24.4528 9.81053
1 15.8815 25.2378 10.5975
1 16.6752 24.4441 10.5975
1 16.6543 25.2357 9.82141
1 15.8716 24.439 9.8073
1 17.4689 25.2378 10.5975
1 18.2626 24.4441 10.5975
1 18.2786 25.2482 9.80239
1 17.4843 24.445 9.80478
1 19.0563 25.2378 10.5975
1 19.85 24.4441 10.5975
1 19.8267 25.226 9.79022
1 19.026 24.4257 9.80596
1 20.6437 25.2378 10.5975
1 21.4374 24.4441 10.5975
1 21.4202 25.2335 9.79094
1 20.6422 24.4427 9.79879
1 22.2311 25.2378 10.5975
1 23.0248 24.4441 10.5975
1 23.0412 25.2198 9.77903
1 22.2437 24.4244 9.80518
1 23.8185 25.2378 10.5975
1 24.6122 24.4441 10.5975
1 24.6243 25.2513 9.79046
1 23.8321 24.4469 9.79979
1 25.4059 25.2378 10.5975
1 26.1996 24.4441 10.5975
1 26.2035 25.2567 9.80479
1 25.4035 24.4657 9.78354
1 26.9933 25.2378 10.5975
1 27.787 24.4441 10.5975
1 27.7691 25.2381 9.79974
1 26.9878 24.433 9.81094
1 28.5807 25.2378 10.5975
1 29.3744 24.4441 10.5975
1 29.2914 25.2311 9.7582
1 28.5474 24.4344 9.77281
1 0.0075 23.6504 10.5975
1 0.801201 22.8567 10.5975
1 0.829697 23.6484 9.81142
1 0.080049 22.8533 9.77987
1 1.5949 23.6504 10.5975
1 2.3886 22.8567 10.5975
1 2.41917 23.638 9.80048
1 1.60144 22.8667 9.80624
1 3.1823 23.6504 10.5975
1 3.976 22.8567 10.5975
1 3.97273 23.6638 9.79923
1 3.20419 22.8454 9.77251
1 4.7697 23.6504 10.5975
1 5.5634 22.8567 10.5975
1 5.54545 23.6795 9.83269
1 4.76311 22.8652 9.79729
1 6.3571 23.6504 10.5975
1 7.1508 22.8567 10.5975
1 7.12322 23.6395 9.80797
1 6.37208 22.8524 9.80817
1 7.94451 23.6504 10.5975
1 8.73821 22.8567 10.5975
1 8.75403 23.6369 9.80983
1 7.94851 22.8872 9.78871
1 9.53191 23.6504 10.5975
1 10.3256 22.8567 10.5975
1 10.3293 23.6282 9.80471
1 9.51382 22.8446 9.79127
1 11.1193 23.6504 10.5975
1 11.913 22.8567 10.5975
1 11.9241 23.6715 9.81821
1 11.1144 22.8565 9.81565
1 12.7067 23.6504 10.5975
1 13.5004 22.8567 10.5975
1 13.5388 23.6431 9.79667
1 12.7123 22.8735 9.80101
1 14.2941 23.6504 10.5975
1 15.0878 22.8567 10.5975
1 15.0958 23.6605 9.80871
1 14.2917 22.8344 9.79192
1 15.8815 23.6504 10.5975
1 16.6752 22.8567 10.5975
1 16.6606 23.6507 9.81114
1 15.8674 22.8553 9.81951
1 17.4689 23.6504 10.5975
1 18.2626 22.8567 10.5975
1 18.2453 23.6346 9.79973
1 17.4268 22.8624 9.80362
1 19.0563 23.6504 10.5975
1 19.85 22.8567 10.5975
1 19.85 23.6476 9.78435
1 19.0542 22.8357 9.80955
1 20.6437 23.6504 10.5975
1 21.4374 22.8567 10.5975
1 21.447 23.639 9.81089
1 20.622 22.8495 9.80729
1 22.2311 23.6504 10.5975
1 23.0248 22.8567 10.5975
1 23.0499 23.6649 9.80032
1 22.2172 22.8579 9.80271
1 23.8185 23.6504 10.5975
1 24.6122 22.8567 10.5975
1 24.6143 23.6504 9.80096
1 23.8399 22.8639 9.82112
1 25.4059 23.6504 10.5975
1 26.1996 22.8567 10.5975
1 26.1856 23.6465 9.78371
1 25.3976 22.8433 9.81998
1 26.9933 23.6504 10.5975
1 27.787 22.8567 10.5975
1 27.7635 23.6678 9.7884
1 26.9844 22.8579 9.825
1 28.5807 23.6504 10.5975
1 29.3744 22.8567 10.5975
1 29.3067 23.6376 9.79408
1 28.5421 22.8624 9.83439
1 0.0075 22.063 10.5975
1 0.801201 21.2693 10.5975
1 0.824938 22.0474 9.80228
1 0.0800094 21.2813 9.75943
1 1.5949 22.063 10.5975
1 2.3886 21.2693 10.5975
1 2.39819 22.0835 9.81169
1 1.62549 21.2868 9.78197
1 3.1823 22.063 10.5975
1 3.976 21.2693 10.5975
1 3.99188 22.0744 9.82353
1 3.18476 21.2557 9.78093
1 4.7697 22.063 10.5975
1 5.5634 21.2693 10.5975
1 5.53874 22.0788 9.80902
1 4.76515 21.27 9.83343
1 6.3571 22.063 10.5975
1 7.1508 21.2693 10.5975
1 7.17215 22.0572 9.82875
1 6.336 21.2679 9.81126
1 7.94451 22.063 10.5975
1 8.73821 21.2693 10.5975
1 8.73433 22.0599 9.79905
1 7.97077 21.2538 9.7681
1 9.53191 22.063 10.5975
1 10.3256 21.2693 10.5975
1 10.3175 22.0412 9.80714
1 9.52124 21.2556 9.8147
1 11.1193 22.063 10.5975
1 11.913 21.2693 10.5975
1 11.8957 22.0812 9.82695
1 11.1109 21.2401 9.79504
1 12.7067 22.063 10.5975
1 13.5004 21.2693 10.5975
1 13.5143 22.0799 9.77607
1 12.7128 21.2757 9.83002
1 14.2941 22.063 10.5975
1 15.0878 21.2693 10.5975
1 15.1064 22.0438 9.81124
1 14.2886 21.2816 9.80526
1 15.8815 22.063 10.5975
1 16.6752 21.2693 10.5975
1 16.6481 22.0589 9.81817
1 15.8904 21.268 9.80271
1 17.4689 22.063 10.5975
1 18.2626 21.2693 10.5975
1 18.2566 22.0567 9.81725
1 17.4697 21.2494 9.81434
1 19.0563 22.063 10.5975
1 19.85 21.2693 10.5975
1 19.8675 22.0607 9.79801
1 19.04 21.2694 9.80632
1 20.6437 22.063 10.5975
1 21.4374 21.2693 10.5975
1 21.4147 22.0634 9.78074
1 20.6331 21.2286 9.80394
1 22.2311 22.063 10.5975
1 23.0248 21.2693 10.5975
1 23.0371 22.0787 9.81844
1 22.228 21.288 9.81294
1 23.8185 22.063 10.5975
1 24.6122 21.2693 10.5975
1 24.6062 22.0482 9.82036
1 23.8295 21.3051 9.82385
1 25.4059 22.063 10.5975
1 26.1996 21.2693 10.5975
1 26.2029 22.044 9.79197
1 25.4107 21.2452 9.78511
1 26.9933 22.063 10.5975
1 27.787 21.2693 10.5975
1 27.7623 22.056 9.79084
1 26.9651 21.2484 9.80518
1 28.5807 22.063 10.5975
1 29.3744 21.2693 10.5975
1 29.2984 22.0535 9.77692
1 28.5505 21.2672 9.83235
1 0.0075 20.4756 10.5975
1 0.801201 19.6819 10.5975
1 0.829306 20.4908 9.81006
1 0.0747379 19.7057 9.79131
1 1.5949 20.4756 10.5975
1 2.3886 19.6819 10.5975
1 2.41506 20.4602 9.78571
1 1.59888 19.6715 9.7895
1 3.1823 20.4756 10.5975
1 3.976 19.6819 10.5975
1 3.97935 20.4559 9.8077
1 3.21079 19.6698 9.80997
1 4.7697 20.4756 10.5975
1 5.5634 19.6819 10.5975
1 5.56736 20.4591 9.80961
1 4.76268 19.6909 9.79304
1 6.3571 20.4756 10.5975
1 7.1508 19.6819 10.5975
1 7.15265 20.4666 9.81848
1 6.37466 19.6849 9.81111
1 7.94451 20.4756 10.5975
1 8.73821 19.6819 10.5975
1 8.75632 20.4633 9.80306
1 7.93643 19.6873 9.81708
1 9.53191 20.4756 10.5975
1 10.3256 19.6819 10.5975
1 10.3369 20.4668 9.79514
1 9.52639 19.6714 9.79038
1 11.1193 20.4756 10.5975
1 11.913 19.6819 10.5975
1 11.9003 20.4752 9.81412
1 11.1315 19.6864 9.79625
1 12.7067 20.4756 10.5975
1 13.5004 19.6819 10.5975
1 13.515 20.4739 9.79745
1 12.6909 19.6873 9.8091
1 14.2941 20.4756 10.5975
1 15.0878 19.6819 10.5975
1 15.0996 20.4957 9.80845
1 14.2797 19.6993 9.80551
1 15.8815 20.4756 10.5975
1 16.6752 19.6819 10.5975
1 16.6776 20.4603 9.79474
1 15.8782 19.6637 9.80473
1 17.4689 20.4756 10.5975
1 18.2626 19.6819 10.5975
1 18.266 20.4642 9.79852
1 17.4729 19.6768 9.79489
1 19.0563 20.4756 10.5975
1 19.85 19.6819 10.5975
1 19.8482 20.4866 9.80298
1 19.0646 19.6869 9.78857
1 20.6437 20.4756 10.5975
1 21.4374 19.6819 10.5975
1 21.4423 20.4646 9.81132
1 20.6192 19.7036 9.80098
1 22.2311 20.4756 10.5975
1 23.0248 19.6819 10.5975
1 23.0091 20.4744 9.80657
1 22.2305 19.7005 9.80527
1 23.8185 20.4756 10.5975
1 24.6122 19.6819 10.5975
1 24.6137 20.4982 9.81952
1 23.8096 19.6972 9.81011
1 25.4059 20.4756 10.5975
1 26.1996 19.6819 10.5975
1 26.177 20.4628 9.80391
1 25.3931 19.6592 9.83186
1 26.9933 20.4756 10.5975
1 27.787 19.6819 10.5975
1 27.7593 20.4814 9.80356
1 26.9558 19.6944 9.80522
1 28.5807 20.4756 10.5975
1 29.3744 19.6819 10.5975
1 29.2918 20.4846 9.79997
1 28.5501 19.6727 9.80391
1 0.0075 18.8882 10.5975
1 0.801201 18.0945 10.5975
1 0.82642 18.8934 9.78209
1 0.0645836 18.1018 9.76835
1 1.5949 18.8882 10.5975
1 2.3886 18.0945 10.5975
1 2.41704 18.8852 9.78972
1 1.63067 18.1119 9.79924
1 3.1823 18.8882 10.5975
1 3.976 18.0945 10.5975
1 3.98528 18.8843 9.81715
1 3.19718 18.1125 9.80079
1 4.7697 18.8882 10.5975
1 5.5634 18.0945 10.5975
1 5.56322 18.8901 9.80609
1 4.77414 18.0953 9.79384
1 6.3571 18.8882 10.5975
1 7.1508 18.0945 10.5975
1 7.16047 18.8997 9.80366
1 6.36478 18.1146 9.80066
1 7.94451 18.8882 10.5975
1 8.73821 18.0945 10.5975
1 8.71873 18.8874 9.8128
1 7.96351 18.0916 9.79823
1 9.53191 18.8882 10.5975
1 10.3256 18.0945 10.5975
1 10.3237 18.8998 9.80991
1 9.54087 18.1219 9.80293
1 11.1193 18.8882 10.5975
1 11.913 18.0945 10.5975
1 11.9275 18.8724 9.8126
1 11.1389 18.1029 9.80209
1 12.7067 18.8882 10.5975
1 13.5004 18.0945 10.5975
1 13.5051 18.8946 9.78211
1 12.7043 18.0932 9.80556
1 14.2941 18.8882 10.5975
1 15.0878 18.0945 10.5975
1 15.1074 18.8917 9.79955
1 14.293 18.0811 9.79692
1 15.8815 18.8882 10.5975
1 16.6752 18.0945 10.5975
1 16.6899 18.8798 9.8003
1 15.8892 18.1035 9.77978
1 17.4689 18.8882 10.5975
1 18.2626 18.0945 10.5975
1 18.2562 18.8885 9.78168
1 17.4737 18.1231 9.7865
1 19.0563 18.8882 10.5975
1 19.85 18.0945 10.5975
1 19.8364 18.8895 9.82382
1 19.045 18.0859 9.81102
1 20.6437 18.8882 10.5975
1 21.4374 18.0945 10.5975
1 21.4246 18.8928 9.79471
1 20.6481 18.0973 9.80451
1 22.2311 18.8882 10.5975
1 23.0248 18.0945 10.5975
1 23.0284 18.8711 9.81746
1 22.2007 18.0855 9.80995
1 23.8185 18.8882 10.5975
1 24.6122 18.0945 10.5975
1 24.6184 18.892 9.77992
1 23.8277 18.0879 9.80737
1 25.4059 18.8882 10.5975
1 26.1996 18.0945 10.5975
1 26.1992 18.9038 9.80963
1 25.3964 18.0895 9.79677
1 26.9933 18.8882 10.5975
1 27.787 18.0945 10.5975
1 27.7626 18.8832 9.81063
1 26.9888 18.1002 9.80372
1 28.5807 18.8882 10.5975
1 29.3744 18.0945 10.5975
1 29.3374 18.8833 9.78088
1 28.5524 18.092 9.82643
1 0.0075 17.3008 10.5975
1 0.801201 16.5071 10.5975
1 0.873468 17.3299 9.80876
1 0.0890623 16.5247 9.78158
1 1.5949 17.3008 10.5975
1 2.3886 16.5071 10.5975
1 2.39546 17.3018 9.81509
1 1.61012 16.4861 9.78883
1 3.1823 17.3008 10.5975
1 3.976 16.5071 10.5975
1 3.96864 17.304 9.80642
1 3.18888 16.5136 9.8006
1 4.7697 17.3008 10.5975
1 5.5634 16.5071 10.5975
1 5.59886 17.3339 9.8092
1 4.75173 16.5196 9.81268
1 6.3571 17.3008 10.5975
1 7.1508 16.5071 10.5975
1 7.12807 17.3162 9.79263
1 6.36035 16.5157 9.81789
1 7.94451 17.3008 10.5975
1 8.73821 16.5071 10.5975
1 8.72159 17.317 9.8197
1 7.9418 16.5205 9.81167
1 9.53191 17.3008 10.5975
1 10.3256 16.5071 10.5975
1 10.3182 17.319 9.80703
1 9.52684 16.5363 9.82282
1 11.1193 17.3008 10.5975
1 11.913 16.5071 10.5975
1 11.9138 17.2994 9.78929
1 11.1092 16.5204 9.77593
1 12.7067 17.3008 10.5975
1 13.5004 16.5071 10.5975
1 13.5002 17.304 9.8086
1 12.7261 16.5061 9.82063
1 14.2941 17.3008 10.5975
1 15.0878 16.5071 10.5975
1 15.1158 17.3317 9.82861
1 14.3095 16.5067 9.79998
1 15.8815 17.3008 10.5975
1 16.6752 16.5071 10.5975
1 16.6704 17.2981 9.81413
1 15.8724 16.5094 9.8071
1 17.4689 17.3008 10.5975
1 18.2626 16.5071 10.5975
1 18.2477 17.2818 9.79844
1 17.4569 16.4887 9.80241
1 19.0563 17.3008 10.5975
1 19.85 16.5071 10.5975
1 19.8147 17.314 9.79452
1 19.0543 16.5036 9.78212
1 20.6437 17.3008 10.5975
1 21.4374 16.5071 10.5975
1 21.4324 17.3018 9.81205
1 20.634 16.5349 9.82782
1 22.2311 17.3008 10.5975
1 23.0248 16.5071 10.5975
1 23.01 17.2801 9.8078
1 22.2397 16.501 9.8075
1 23.8185 17.3008 10.5975
1 24.6122 16.5071 10.5975
1 24.6236 17.3051 9.81714
1 23.8241 16.5274 9.78672
1 25.4059 17.3008 10.5975
1 26.1996 16.5071 10.5975
1 26.1955 17.2813 9.80771
1 25.4081 16.4879 9.8158
1 26.9933 17.3008 10.5975
1 27.787 16.5071 10.5975
1 27.7783 17.3049 9.80181
1 27.0035 16.507 9.79828
1 28.5807 17.3008 10.5975
1 29.3744 16.5071 10.5975
1 29.3235 17.2882 9.76963
1 28.5395 16.4975 9.81062
1 0.0075 15.7134 10.5975
1 0.801201 14.9197 10.5975
1 0.815643 15.7489 9.79675
1 0.0763272 14.9339 9.75841
1 1.5949 15.7134 10.5975
1 2.3886 14.9197 10.5975
1 2.42898 15.6971 9.82637
1 1.61606 14.9322 9.80031
1 3.1823 15.7134 10.5975
1 3.976 14.9197 10.5975
1 3.98799 15.7114 9.7922
1 3.17957 14.9057 9.8038
1 4.7697 15.7134 10.5975
1 5.5634 14.9197 10.5975
1 5.56191 15.7051 9.78476
1 4.7605 14.8983 9.7981
1 6.3571 15.7134 10.5975
1 7.1508 14.9197 10.5975
1 7.13088 15.7186 9.8015
1 6.34818 14.9083 9.80241
1 7.94451 15.7134 10.5975
1 8.73821 14.9197 10.5975
1 8.72188 15.7107 9.77838
1 7.93458 14.9074 9.79024
1 9.53191 15.7134 10.5975
1 10.3256 14.9197 10.5975
1 10.3021 15.7277 9.81188
1 9.55851 14.9086 9.78986
1 11.1193 15.7134 10.5975
1 11.913 14.9197 10.5975
1 11.8967 15.7104 9.80798
1 11.1045 14.9294 9.80834
1 12.7067 15.7134 10.5975
1 13.5004 14.9197 10.5975
1 13.4977 15.7059 9.79333
1 12.7125 14.8889 9.81216
1 14.2941 15.7134 10.5975
1 15.0878 14.9197 10.5975
1 15.0971 15.7007 9.80826
1 14.2791 14.915 9.80692
1 15.8815 15.7134 10.5975
1 16.6752 14.9197 10.5975
1 16.6812 15.719 9.81958
1 15.8897 14.95 9.83059
1 17.4689 15.7134 10.5975
1 18.2626 14.9197 10.5975
1 18.2925 15.7166 9.79379
1 17.4726 14.924 9.81508
1 19.0563 15.7134 10.5975
1 19.85 14.9197 10.5975
1 19.8365 15.7336 9.81082
1 19.0713 14.913 9.82716
1 20.6437 15.7134 10.5975
1 21.4374 14.9197 10.5975
1 21.4308 15.7113 9.80903
1 20.6242 14.9194 9.79933
1 22.2311 15.7134 10.5975
1 23.0248 14.9197 10.5975
1 23.0272 15.7143 9.81582
1 22.2175 14.9035 9.82194
1 23.8185 15.7134 10.5975
1 24.6122 14.9197 10.5975
1 24.5957 15.7058 9.83276
1 23.792 14.9107 9.82309
1 25.4059 15.7134 10.5975
1 26.1996 14.9197 10.5975
1 26.1825 15.7058 9.7991
1 25.4218 14.9044 9.81188
1 26.9933 15.7134 10.5975
1 27.787 14.9197 10.5975
1 27.7881 15.6764 9.78248
1 26.9937 14.913 9.80757
1 28.5807 15.7134 10.5975
1 29.3744 14.9197 10.5975
1 29.3158 15.72 9.76691
1 28.5667 14.92 9.78359
1 0.0075 14.126 10.5975
1 0.801201 13.3323 10.5975
1 0.846127 14.1261 9.78571
1 0.0715197 13.3434 9.78331
1 1.5949 14.126 10.5975
1 2.3886 13.3323 10.5975
1 2.40938 14.1213 9.79099
1 1.61933 13.3471 9.79576
1 3.1823 14.126 10.5975
1 3.976 13.3323 10.5975
1 3.9622 14.116 9.80712
1 3.18213 13.3606 9.78335
1 4.7697 14.126 10.5975
1 5.5634 13.3323 10.5975
1 5.57775 14.1197 9.80449
1 4.76386 13.3354 9.80477
1 6.3571 14.126 10.5975
1 7.1508 13.3323 10.5975
1 7.13819 14.1035 9.79382
1 6.33784 13.3419 9.79012
1 7.94451 14.126 10.5975
1 8.73821 13.3323 10.5975
1 8.74022 14.1263 9.80568
1 7.93102 13.3331 9.81489
1 9.53191 14.126 10.5975
1 10.3256 13.3323 10.5975
1 10.3509 14.1165 9.77653
1 9.55638 13.3365 9.80248
1 11.1193 14.126 10.5975
1 11.913 13.3323 10.5975
1 11.8854 14.1333 9.78794
1 11.1147 13.3121 9.80453
1 12.7067 14.126 10.5975
1 13.5004 13.3323 10.5975
1 13.5008 14.1318 9.8059
1 12.7102 13.3465 9.81065
1 14.2941 14.126 10.5975
1 15.0878 13.3323 10.5975
1 15.1123 14.1151 9.78955
1 14.3419 13.3434 9.80251
1 15.8815 14.126 10.5975
1 16.6752 13.3323 10.5975
1 16.643 14.1356 9.81876
1 15.8897 13.3278 9.82024
1 17.4689 14.126 10.5975
1 18.2626 13.3323 10.5975
1 18.2566 14.1297 9.79912
1 17.4405 13.3395 9.8079
1 19.0563 14.126 10.5975
1 19.85 13.3323 10.5975
1 19.8369 14.1148 9.81441
1 19.0635 13.3178 9.79167
1 20.6437 14.126 10.5975
1 21.4374 13.3323 10.5975
1 21.4381 14.1472 9.80806
1 20.6494 13.3394 9.80226
1 22.2311 14.126 10.5975
1 23.0248 13.3323 10.5975
1 23.0357 14.1337 9.82391
1 22.2321 13.3474 9.78846
1 23.8185 14.126 10.5975
1 24.6122 13.3323 10.5975
1 24.6225 14.1228 9.82409
1 23.795 13.3498 9.79683
1 25.4059 14.126 10.5975
1 26.1996 13.3323 10.5975
1 26.212 14.1219 9.77936
1 25.3774 13.3141 9.81736
1 26.9933 14.126 10.5975
1 27.787 13.3323 10.5975
1 27.7782 14.1159 9.79963
1 26.9899 13.3062 9.79612
1 28.5807 14.126 10.5975
1 29.3744 13.3323 10.5975
1 29.3061 14.1424 9.77722
1 28.5507 13.3398 9.79974
1 0.0075 12.5386 10.5975
1 0.801201 11.7449 10.5975
1 0.844715 12.5233 9.80492
1 0.0632761 11.7513 9.77176
1 1.5949 12.5386 10.5975
1 2.3886 11.7449 10.5975
1 2.42849 12.5367 9.7778
1 1.61518 11.7463 9.80392
1 3.1823 12.5386 10.5975
1 3.976 11.7449 10.5975
1 3.96579 12.5358 9.79225
1 3.19572 11.7305 9.80211
1 4.7697 12.5386 10.5975
1 5.5634 11.7449 10.5975
1 5.54729 12.5225 9.81246
1 4.76475 11.7361 9.80743
1 6.3571 12.5386 10.5975
1 7.1508 11.7449 10.5975
1 7.16265 12.5271 9.81392
1 6.34559 11.7404 9.7953
1 7.94451 12.5386 10.5975
1 8.73821 11.7449 10.5975
1 8.74916 12.5426 9.8038
1 7.95549 11.7303 9.80559
1 9.53191 12.5386 10.5975
1 10.3256 11.7449 10.5975
1 10.3022 12.5349 9.79922
1 9.53603 11.7438 9.81344
1 11.1193 12.5386 10.5975
1 11.913 11.7449 10.5975
1 11.9156 12.5266 9.81392
1 11.1154 11.7471 9.81937
1 12.7067 12.5386 10.5975
1 13.5004 11.7449 10.5975
1 13.4914 12.5442 9.79507
1 12.7208 11.7314 9.80877
1 14.2941 12.5386 10.5975
1 15.0878 11.7449 10.5975
1 15.0954 12.5414 9.82532
1 14.3064 11.7296 9.81683
1 15.8815 12.5386 10.5975
1 16.6752 11.7449 10.5975
1 16.6802 12.5306 9.80213
1 15.8755 11.7281 9.81653
1 17.4689 12.5386 10.5975
1 18.2626 11.7449 10.5975
1 18.2638 12.5259 9.7938
1 17.4652 11.7542 9.80019
1 19.0563 12.5386 10.5975
1 19.85 11.7449 10.5975
1 19.8436 12.5317 9.78893
1 19.055 11.7381 9.80273
1 20.6437 12.5386 10.5975
1 21.4374 11.7449 10.5975
1 21.4359 12.5117 9.81598
1 20.6461 11.7283 9.80755
1 22.2311 12.5386 10.5975
1 23.0248 11.7449 10.5975
1 22.9996 12.5514 9.80388
1 22.2395 11.7565 9.79528
1 23.8185 12.5386 10.5975
1 24.6122 11.7449 10.5975
1 24.5617 12.5467 9.8244
1 23.803 11.7676 9.80144
1 25.4059 12.5386 10.5975
1 26.1996 11.7449 10.5975
1 26.1782 12.5381 9.78757
1 25.3897 11.7377 9.79879
1 26.9933 12.5386 10.5975
1 27.787 11.7449 10.5975
1 27.7637 12.5246 9.77974
1 26.9874 11.765 9.80401
1 28.5807 12.5386 10.5975
1 29.3744 11.7449 10.5975
1 29.3055 12.5381 9.77292
1 28.5418 11.7773 9.8025
1 0.0075 10.9512 10.5975
1 0.801201 10.1575 10.5975
1 0.820154 10.9237 9.80306
1 0.0346576 10.161 9.77713
1 1.5949 10.9512 10.5975
1 2.3886 10.1575 10.5975
1 2.38854 10.9378 9.80992
1 1.63197 10.1393 9.79695
1 3.1823 10.9512 10.5975
1 3.976 10.1575 10.5975
1 3.98533 10.9189 9.79608
1 3.16769 10.1545 9.80357
1 4.7697 10.9512 10.5975
1 5.5634 10.1575 10.5975
1 5.57273 10.9403 9.80441
1 4.78488 10.1673 9.81863
1 6.3571 10.9512 10.5975
1 7.1508 10.1575 10.5975
1 7.15346 10.9213 9.82056
1 6.33636 10.1519 9.7982
1 7.94451 10.9512 10.5975
1 8.73821 10.1575 10.5975
1 8.72483 10.9388 9.81167
1 7.95379 10.1457 9.79782
1 9.53191 10.9512 10.5975
1 10.3256 10.1575 10.5975
1 10.3251 10.9621 9.81192
1 9.53976 10.173 9.79173
1 11.1193 10.9512 10.5975
1 11.913 10.1575 10.5975
1 11.903 10.9432 9.78805
1 11.1188 10.1322 9.78809
1 12.7067 10.9512 10.5975
1 13.5004 10.1575 10.5975
1 13.4977 10.9421 9.81967
1 12.6989 10.1649 9.78804
1 14.2941 10.9512 10.5975
1 15.0878 10.1575 10.5975
1 15.0777 10.9439 9.79891
1 14.2779 10.1359 9.80923
1 15.8815 10.9512 10.5975
1 16.6752 10.1575 10.5975
1 16.687 10.9525 9.82275
1 15.8772 10.1397 9.78265
1 17.4689 10.9512 10.5975
1 18.2626 10.1575 10.5975
1 18.2487 10.9501 9.80952
1 17.4741 10.1563 9.7872
1 19.0563 10.9512 10.5975
1 19.85 10.1575 10.5975
1 19.835 10.9582 9.81039
1 19.0462 10.1697 9.80315
1 20.6437 10.9512 10.5975
1 21.4374 10.1575 10.5975
1 21.4677 10.9562 9.82323
1 20.6405 10.1681 9.80172
1 22.2311 10.9512 10.5975
1 23.0248 10.1575 10.5975
1 23.0287 10.9603 9.80091
1 22.2353 10.177 9.80968
1 23.8185 10.9512 10.5975
1 24.6122 10.1575 10.5975
1 24.6081 10.951 9.8377
1 23.8329 10.1734 9.82254
1 25.4059 10.9512 10.5975
1 26.1996 10.1575 10.5975
1 26.2084 10.9687 9.84211
1 25.4037 10.1621 9.78963
1 26.9933 10.9512 10.5975
1 27.787 10.1575 10.5975
1 27.758 10.9535 9.7837
1 26.9861 10.1647 9.78206
1 28.5807 10.9512 10.5975
1 29.3744 10.1575 10.5975
1 29.2906 10.9441 9.77979
1 28.5439 10.1355 9.80027
1 0.0075 9.36379 10.5975
1 0.801201 8.57009 10.5975
1 0.834009 9.36797 9.77656
1 0.0788644 8.55386 9.76092
1 1.5949 9.36379 10.5975
1 2.3886 8.57009 10.5975
1 2.39947 9.36331 9.76483
1 1.60467 8.57041 9.81065
1 3.1823 9.36379 10.5975
1 3.976 8.57009 10.5975
1 3.96525 9.37998 9.80788
1 3.19129 8.55569 9.78873
1 4.7697 9.36379 10.5975
1 5.5634 8.57009 10.5975
1 5.55614 9.37077 9.80156
1 4.78635 8.57392 9.81722
1 6.3571 9.36379 10.5975
1 7.1508 8.57009 10.5975
1 7.14447 9.35148 9.79939
1 6.36071 8.56339 9.79895
1 7.94451 9.36379 10.5975
1 8.73821 8.57009 10.5975
1 8.72928 9.3553 9.82877
1 7.9231 8.54989 9.79933
1 9.53191 9.36379 10.5975
1 10.3256 8.57009 10.5975
1 10.3194 9.34955 9.81026
1 9.51578 8.57421 9.79874
1 11.1193 9.36379 10.5975
1 11.913 8.57009 10.5975
1 11.9049 9.345 9.80468
1 11.1053 8.58622 9.81897
1 12.7067 9.36379 10.5975
1 13.5004 8.57009 10.5975
1 13.4882 9.36179 9.82329
1 12.7111 8.59368 9.82309
1 14.2941 9.36379 10.5975
1 15.0878 8.57009 10.5975
1 15.1119 9.32972 9.79876
1 14.2964 8.59571 9.80432
1 15.8815 9.36379 10.5975
1 16.6752 8.57009 10.5975
1 16.6587 9.36777 9.79898
1 15.8844 8.56683 9.82368
1 17.4689 9.36379 10.5975
1 18.2626 8.57009 10.5975
1 18.2904 9.37212 9.80794
1 17.4727 8.58174 9.77825
1 19.0563 9.36379 10.5975
1 19.85 8.57009 10.5975
1 19.852 9.37252 9.81373
1 19.0535 8.57233 9.82261
1 20.6437 9.36379 10.5975
1 21.4374 8.57009 10.5975
1 21.4391 9.37078 9.81588
1 20.6455 8.58205 9.81448
1 22.2311 9.36379 10.5975
1 23.0248 8.57009 10.5975
1 23.0441 9.36744 9.81256
1 22.233 8.57211 9.8336
1 23.8185 9.36379 10.5975
1 24.6122 8.57009 10.5975
1 24.6056 9.36899 9.80586
1 23.819 8.5726 9.80094
1 25.4059 9.36379 10.5975
1 26.1996 8.57009 10.5975
1 26.1837 9.37373 9.80012
1 25.3916 8.55902 9.79355
1 26.9933 9.36379 10.5975
1 27.787 8.57009 10.5975
1 27.7621 9.37349 9.79738
1 26.9778 8.59278 9.81414
1 28.5807 9.36379 10.5975
1 29.3744 8.57009 10.5975
1 29.3119 9.33219 9.79819
1 28.552 8.56113 9.82853
1 0.0075 7.77639 10.5975
1 0.801201 6.98268 10.5975
1 0.844962 7.76227 9.78643
1 0.0829067 7.00116 9.78126
1 1.5949 7.77639 10.5975
1 2.3886 6.98268 10.5975
1 2.41772 7.77628 9.80895
1 1.61996 7.01324 9.80804
1 3.1823 7.77639 10.5975
1 3.976 6.98268 10.5975
1 4.00719 7.77565 9.78536
1 3.19384 6.99093 9.7836
1 4.7697 7.77639 10.5975
1 5.5634 6.98268 10.5975
1 5.58034 7.75293 9.82122
1 4.79023 6.98922 9.78371
1 6.3571 7.77639 10.5975
1 7.1508 6.98268 10.5975
1 7.16539 7.76573 9.80106
1 6.3571 6.981 9.78999
1 7.94451 7.77639 10.5975
1 8.73821 6.98268 10.5975
1 8.74582 7.78558 9.80324
1 7.93068 6.99404 9.80894
1 9.53191 7.77639 10.5975
1 10.3256 6.98268 10.5975
1 10.3071 7.79583 9.81792
1 9.53716 6.98307 9.8175
1 11.1193 7.77639 10.5975
1 11.913 6.98268 10.5975
1 11.8985 7.77253 9.82966
1 11.1246 6.99035 9.79242
1 12.7067 7.77639 10.5975
1 13.5004 6.98268 10.5975
1 13.4978 7.78975 9.81459
1 12.6822 6.95362 9.80247
1 14.2941 7.77639 10.5975
1 15.0878 6.98268 10.5975
1 15.1035 7.77705 9.78262
1 14.3028 6.97878 9.82628
1 15.8815 7.77639 10.5975
1 16.6752 6.98268 10.5975
1 16.6764 7.78555 9.78964
1 15.8909 7.00495 9.81491
1 17.4689 7.77639 10.5975
1 18.2626 6.98268 10.5975
1 18.2921 7.78527 9.80625
1 17.4545 6.9829 9.8163
1 19.0563 7.77639 10.5975
1 19.85 6.98268 10.5975
1 19.8507 7.78949 9.82526
1 19.0672 6.99433 9.81597
1 20.6437 7.77639 10.5975
1 21.4374 6.98268 10.5975
1 21.4466 7.76445 9.83077
1 20.6439 7.00461 9.81247
1 22.2311 7.77639 10.5975
1 23.0248 6.98268 10.5975
1 23.041 7.78719 9.80034
1 22.2447 6.96962 9.80935
1 23.8185 7.77639 10.5975
1 24.6122 6.98268 10.5975
1 24.6233 7.78275 9.80279
1 23.8419 6.99228 9.79761
1 25.4059 7.77639 10.5975
1 26.1996 6.98268 10.5975
1 26.2 7.79044 9.81237
1 25.4104 6.96705 9.8053
1 26.9933 7.77639 10.5975
1 27.787 6.98268 10.5975
1 27.7613 7.77537 9.80005
1 26.9686 6.9857 9.80199
1 28.5807 7.77639 10.5975
1 29.3744 6.98268 10.5975
1 29.3128 7.77717 9.76246
1 28.5612 6.98582 9.79186
1 0.0075 6.18898 10.5975
1 0.801201 5.39528 10.5975
1 0.847454 6.19757 9.80001
1 0.0624403 5.39442 9.78222
1 1.5949 6.18898 10.5975
1 2.3886 5.39528 10.5975
1 2.41829 6.16223 9.81683
1 1.59232 5.41046 9.82029
1 3.1823 6.18898 10.5975
1 3.976 5.39528 10.5975
1 4.00183 6.21216 9.81108
1 3.19723 5.40289 9.82272
1 4.7697 6.18898 10.5975
1 5.5634 5.39528 10.5975
1 5.57914 6.19342 9.77623
1 4.77348 5.40685 9.83348
1 6.3571 6.18898 10.5975
1 7.1508 5.39528 10.5975
1 7.11778 6.18374 9.80771
1 6.3663 5.41615 9.8087
1 7.94451 6.18898 10.5975
1 8.73821 5.39528 10.5975
1 8.73933 6.18266 9.82854