9376
Atoms. Timestep: 4000000
1 30 3.55271e-15 10.6883
1 0.793701 29.2063 10.6883
1 0.828013 29.9475 9.87037
1 0.0673115 29.1994 9.84756
1 1.5874 3.55271e-15 10.6883
1 2.3811 29.2063 10.6883
1 2.36848 29.9136 9.86539
1 1.60489 29.1911 9.88022
1 3.1748 3.55271e-15 10.6883
1 3.9685 29.2063 10.6883
1 3.96379 29.9464 9.86747
1 3.19362 29.1625 9.85892
1 4.7622 3.55271e-15 10.6883
1 5.5559 29.2063 10.6883
1 5.55138 29.9451 9.85955
1 4.74609 29.1799 9.87537
1 6.3496 3.55271e-15 10.6883
1 7.1433 29.2063 10.6883
1 7.14519 29.9301 9.87763
1 6.35366 29.2002 9.8897
1 7.93701 3.55271e-15 10.6883
1 8.73071 29.2063 10.6883
1 8.71391 29.932 9.84423
1 7.94594 29.1649 9.87986
1 9.52441 3.55271e-15 10.6883
1 10.3181 29.2063 10.6883
1 10.326 29.9365 9.86001
1 9.51578 29.1706 9.90005
1 11.1118 3.55271e-15 10.6883
1 11.9055 29.2063 10.6883
1 11.9195 29.9426 9.87622
1 11.1215 29.1741 9.89003
1 12.6992 3.55271e-15 10.6883
1 13.4929 29.2063 10.6883
1 13.4554 29.9176 9.86129
1 12.6833 29.1862 9.88369
1 14.2866 3.55271e-15 10.6883
1 15.0803 29.2063 10.6883
1 15.1048 29.9219 9.85266
1 14.263 29.1753 9.87186
1 15.874 3.55271e-15 10.6883
1 16.6677 29.2063 10.6883
1 16.6627 29.9488 9.88121
1 15.8782 29.1464 9.89175
1 17.4614 3.55271e-15 10.6883
1 18.2551 29.2063 10.6883
1 18.283 29.8972 9.86213
1 17.4612 29.1569 9.86852
1 19.0488 3.55271e-15 10.6883
1 19.8425 29.2063 10.6883
1 19.8326 29.9186 9.8782
1 19.073 29.1541 9.89085
1 20.6362 3.55271e-15 10.6883
1 21.4299 29.2063 10.6883
1 21.4557 29.9519 9.86678
1 20.6334 29.1823 9.88939
1 22.2236 3.55271e-15 10.6883
1 23.0173 29.2063 10.6883
1 23.0215 29.9395 9.87205
1 22.2269 29.1745 9.89389
1 23.811 3.55271e-15 10.6883
1 24.6047 29.2063 10.6883
1 24.5763 29.9253 9.87462
1 23.7834 29.1833 9.86307
1 25.3984 3.55271e-15 10.6883
1 26.1921 29.2063 10.6883
1 26.1779 29.9298 9.86378
1 25.3981 29.1852 9.89561
1 26.9858 3.55271e-15 10.6883
1 27.7795 29.2063 10.6883
1 27.7552 29.917 9.849
1 26.9764 29.1805 9.89914
1 28.5732 3.55271e-15 10.6883
1 29.3669 29.2063 10.6883
1 29.3065 29.9655 9.83637
1 28.5664 29.1753 9.87975
1 30 28.4126 10.6883
1 0.793701 27.6189 10.6883
1 0.819226 28.42 9.87488
1 0.0760798 27.6227 9.86713
1 1.5874 28.4126 10.6883
1 2.3811 27.6189 10.6883
1 2.37869 28.3937 9.85957
1 1.60373 27.6434 9.8894
1 3.1748 28.4126 10.6883
1 3.9685 27.6189 10.6883
1 3.96837 28.3948 9.89192
1 3.17276 27.5879 9.89756
1 4.7622 28.4126 10.6883
1 5.5559 27.6189 10.6883
1 5.56462 28.4003 9.90447
1 4.77775 27.5922 9.90032
1 6.3496 28.4126 10.6883
1 7.1433 27.6189 10.6883
1 7.13035 28.3869 9.87317
1 6.34901 27.6478 9.91084
1 7.93701 28.4126 10.6883
1 8.73071 27.6189 10.6883
1 8.74683 28.3782 9.90585
1 7.91128 27.6099 9.90689
1 9.52441 28.4126 10.6883
1 10.3181 27.6189 10.6883
1 10.3015 28.3927 9.90731
1 9.5216 27.5714 9.88362
1 11.1118 28.4126 10.6883
1 11.9055 27.6189 10.6883
1 11.8815 28.3875 9.89006
1 11.1129 27.61 9.91214
1 12.6992 28.4126 10.6883
1 13.4929 27.6189 10.6883
1 13.4764 28.3999 9.87971
1 12.6832 27.6008 9.88705
1 14.2866 28.4126 10.6883
1 15.0803 27.6189 10.6883
1 15.0352 28.402 9.9055
1 14.2783 27.6331 9.91374
1 15.874 28.4126 10.6883
1 16.6677 27.6189 10.6883
1 16.6863 28.3811 9.89643
1 15.8448 27.6333 9.90634
1 17.4614 28.4126 10.6883
1 18.2551 27.6189 10.6883
1 18.2635 28.3985 9.89477
1 17.463 27.6082 9.9106
1 19.0488 28.4126 10.6883
1 19.8425 27.6189 10.6883
1 19.8422 28.3764 9.88042
1 19.0482 27.6335 9.86732
1 20.6362 28.4126 10.6883
1 21.4299 27.6189 10.6883
1 21.4451 28.3946 9.89171
1 20.6366 27.6081 9.8855
1 22.2236 28.4126 10.6883
1 23.0173 27.6189 10.6883
1 23.0131 28.3686 9.88181
1 22.2017 27.6151 9.8801
1 23.811 28.4126 10.6883
1 24.6047 27.6189 10.6883
1 24.5964 28.3984 9.87309
1 23.831 27.6087 9.8864
1 25.3984 28.4126 10.6883
1 26.1921 27.6189 10.6883
1 26.1711 28.3929 9.88155
1 25.3989 27.5901 9.88941
1 26.9858 28.4126 10.6883
1 27.7795 27.6189 10.6883
1 27.776 28.4111 9.8926
1 26.9727 27.6134 9.88619
1 28.5732 28.4126 10.6883
1 29.3669 27.6189 10.6883
1 29.3087 28.4237 9.86967
1 28.5691 27.5974 9.91196
1 30 26.8252 10.6883
1 0.793701 26.0315 10.6883
1 0.824521 26.8014 9.89017
1 0.080605 26.0217 9.89208
1 1.5874 26.8252 10.6883
1 2.3811 26.0315 10.6883
1 2.40684 26.811 9.90398
1 1.60573 26.0245 9.88721
1 3.1748 26.8252 10.6883
1 3.9685 26.0315 10.6883
1 3.98891 26.8068 9.88905
1 3.16673 26.0156 9.89119
1 4.7622 26.8252 10.6883
1 5.5559 26.0315 10.6883
1 5.56045 26.825 9.8822
1 4.77443 26.0104 9.88768
1 6.3496 26.8252 10.6883
1 7.1433 26.0315 10.6883
1 7.13262 26.8228 9.91143
1 6.34941 26.035 9.88699
1 7.93701 26.8252 10.6883
1 8.73071 26.0315 10.6883
1 8.72479 26.8092 9.89127
1 7.93551 26.0611 9.88807
1 9.52441 26.8252 10.6883
1 10.3181 26.0315 10.6883
1 10.3226 26.8232 9.88652
1 9.52025 26.0322 9.91019
1 11.1118 26.8252 10.6883
1 11.9055 26.0315 10.6883
1 11.9085 26.7998 9.88257
1 11.1204 26.0089 9.91689
1 12.6992 26.8252 10.6883
1 13.4929 26.0315 10.6883
1 13.4908 26.8247 9.90956
1 12.692 26.0203 9.88902
1 14.2866 26.8252 10.6883
1 15.0803 26.0315 10.6883
1 15.0565 26.7916 9.90348
1 14.3154 26.0255 9.90686
1 15.874 26.8252 10.6883
1 16.6677 26.0315 10.6883
1 16.6652 26.8277 9.87926
1 15.857 26.0205 9.8934
1 17.4614 26.8252 10.6883
1 18.2551 26.0315 10.6883
1 18.2529 26.8184 9.88801
1 17.4453 26.0092 9.9047
1 19.0488 26.8252 10.6883
1 19.8425 26.0315 10.6883
1 19.8292 26.8209 9.88022
1 19.0415 26.0073 9.88315
1 20.6362 26.8252 10.6883
1 21.4299 26.0315 10.6883
1 21.4176 26.7915 9.88236
1 20.6342 26.0344 9.90575
1 22.2236 26.8252 10.6883
1 23.0173 26.0315 10.6883
1 23.0268 26.8399 9.89418
1 22.2397 26.0415 9.90794
1 23.811 26.8252 10.6883
1 24.6047 26.0315 10.6883
1 24.6114 26.8316 9.93193
1 23.8309 26.0271 9.86011
1 25.3984 26.8252 10.6883
1 26.1921 26.0315 10.6883
1 26.2137 26.81 9.90125
1 25.3964 26.0356 9.91373
1 26.9858 26.8252 10.6883
1 27.7795 26.0315 10.6883
1 27.7692 26.8067 9.90875
1 26.9765 25.9979 9.90034
1 28.5732 26.8252 10.6883
1 29.3669 26.0315 10.6883
1 29.3122 26.8307 9.87207
1 28.5389 26.0411 9.89777
1 30 25.2378 10.6883
1 0.793701 24.4441 10.6883
1 0.840559 25.2309 9.91045
1 0.0315283 24.4334 9.85996
1 1.5874 25.2378 10.6883
1 2.3811 24.4441 10.6883
1 2.39914 25.2353 9.89018
1 1.62103 24.4503 9.91146
1 3.1748 25.2378 10.6883
1 3.9685 24.4441 10.6883
1 3.95877 25.2501 9.8856
1 3.15833 24.4546 9.89739
1 4.7622 25.2378 10.6883
1 5.5559 24.4441 10.6883
1 5.54778 25.2277 9.88714
1 4.74131 24.4497 9.89983
1 6.3496 25.2378 10.6883
1 7.1433 24.4441 10.6883
1 7.14902 25.2282 9.89438
1 6.364 24.4304 9.88303
1 7.93701 25.2378 10.6883
1 8.73071 24.4441 10.6883
1 8.72178 25.239 9.89647
1 7.94647 24.4049 9.8964
1 9.52441 25.2378 10.6883
1 10.3181 24.4441 10.6883
1 10.3183 25.2425 9.89317
1 9.51459 24.4505 9.89543
1 11.1118 25.2378 10.6883
1 11.9055 24.4441 10.6883
1 11.9052 25.2447 9.87475
1 11.1189 24.4471 9.91238
1 12.6992 25.2378 10.6883
1 13.4929 24.4441 10.6883
1 13.4882 25.2258 9.90514
1 12.7011 24.4194 9.88874
1 14.2866 25.2378 10.6883
1 15.0803 24.4441 10.6883
1 15.1191 25.2232 9.89019
1 14.2865 24.4326 9.88959
1 15.874 25.2378 10.6883
1 16.6677 24.4441 10.6883
1 16.6526 25.234 9.90642
1 15.886 24.4386 9.90342
1 17.4614 25.2378 10.6883
1 18.2551 24.4441 10.6883
1 18.2427 25.2122 9.88249
1 17.4648 24.4418 9.90175
1 19.0488 25.2378 10.6883
1 19.8425 24.4441 10.6883
1 19.8195 25.2246 9.9284
1 19.033 24.4383 9.91188
1 20.6362 25.2378 10.6883
1 21.4299 24.4441 10.6883
1 21.4284 25.2378 9.92088
1 20.6386 24.4447 9.87802
1 22.2236 25.2378 10.6883
1 23.0173 24.4441 10.6883
1 23.0266 25.236 9.87716
1 22.2298 24.4374 9.88698
1 23.811 25.2378 10.6883
1 24.6047 24.4441 10.6883
1 24.5962 25.2197 9.87654
1 23.8239 24.4512 9.85289
1 25.3984 25.2378 10.6883
1 26.1921 24.4441 10.6883
1 26.148 25.2536 9.87449
1 25.3954 24.4337 9.90515
1 26.9858 25.2378 10.6883
1 27.7795 24.4441 10.6883
1 27.7628 25.2357 9.87813
1 26.9857 24.4606 9.88416
1 28.5732 25.2378 10.6883
1 29.3669 24.4441 10.6883
1 29.2875 25.2474 9.88273
1 28.5275 24.4503 9.91335
1 30 23.6504 10.6883
1 0.793701 22.8567 10.6883
1 0.834906 23.6491 9.84407
1 0.0524035 22.8536 9.85399
1 1.5874 23.6504 10.6883
1 2.3811 22.8567 10.6883
1 2.3845 23.6154 9.90224
1 1.60993 22.8636 9.89225
1 3.1748 23.6504 10.6883
1 3.9685 22.8567 10.6883
1 3.98609 23.6415 9.86629
1 3.22109 22.8722 9.91739
1 4.7622 23.6504 10.6883
1 5.5559 22.8567 10.6883
1 5.5462 23.6695 9.89957
1 4.75596 22.861 9.86695
1 6.3496 23.6504 10.6883
1 7.1433 22.8567 10.6883
1 7.13293 23.6408 9.87965
1 6.34079 22.8414 9.85923
1 7.93701 23.6504 10.6883
1 8.73071 22.8567 10.6883
1 8.74325 23.6528 9.89537
1 7.93573 22.8616 9.90095
1 9.52441 23.6504 10.6883
1 10.3181 22.8567 10.6883
1 10.3041 23.6615 9.88372
1 9.52042 22.8603 9.89217
1 11.1118 23.6504 10.6883
1 11.9055 22.8567 10.6883
1 11.8953 23.6391 9.89177
1 11.0914 22.8453 9.88598
1 12.6992 23.6504 10.6883
1 13.4929 22.8567 10.6883
1 13.4787 23.6333 9.90772
1 12.676 22.8517 9.91043
1 14.2866 23.6504 10.6883
1 15.0803 22.8567 10.6883
1 15.1027 23.6402 9.89124
1 14.3175 22.8798 9.90964
1 15.874 23.6504 10.6883
1 16.6677 22.8567 10.6883
1 16.6711 23.6347 9.90022
1 15.8879 22.844 9.90428
1 17.4614 23.6504 10.6883
1 18.2551 22.8567 10.6883
1 18.2441 23.6463 9.89596
1 17.4559 22.8623 9.90703
1 19.0488 23.6504 10.6883
1 19.8425 22.8567 10.6883
1 19.8476 23.6467 9.90088
1 19.0586 22.8728 9.90547
1 20.6362 23.6504 10.6883
1 21.4299 22.8567 10.6883
1 21.4361 23.6645 9.88854
1 20.6481 22.856 9.91489
1 22.2236 23.6504 10.6883
1 23.0173 22.8567 10.6883
1 23.0086 23.6887 9.88708
1 22.2354 22.8578 9.90776
1 23.811 23.6504 10.6883
1 24.6047 22.8567 10.6883
1 24.6289 23.6557 9.88983
1 23.7915 22.8708 9.90415
1 25.3984 23.6504 10.6883
1 26.1921 22.8567 10.6883
1 26.1942 23.6462 9.90268
1 25.4106 22.8772 9.89865
1 26.9858 23.6504 10.6883
1 27.7795 22.8567 10.6883
1 27.7582 23.6502 9.90444
1 26.9921 22.8769 9.91922
1 28.5732 23.6504 10.6883
1 29.3669 22.8567 10.6883
1 29.3117 23.6244 9.8859
1 28.5098 22.8313 9.89605
1 30 22.063 10.6883
1 0.793701 21.2693 10.6883
1 0.80927 22.0566 9.89541
1 0.0379748 21.2691 9.85188
1 1.5874 22.063 10.6883
1 2.3811 21.2693 10.6883
1 2.41817 22.0779 9.90209
1 1.59744 21.2971 9.87194
1 3.1748 22.063 10.6883
1 3.9685 21.2693 10.6883
1 3.97931 22.068 9.87548
1 3.15893 21.2957 9.88673
1 4.7622 22.063 10.6883
1 5.5559 21.2693 10.6883
1 5.55375 22.0484 9.90212
1 4.73934 21.268 9.89075
1 6.3496 22.063 10.6883
1 7.1433 21.2693 10.6883
1 7.13998 22.0401 9.89312
1 6.34274 21.2553 9.88442
1 7.93701 22.063 10.6883
1 8.73071 21.2693 10.6883
1 8.73582 22.0425 9.92005
1 7.9393 21.2665 9.92093
1 9.52441 22.063 10.6883
1 10.3181 21.2693 10.6883
1 10.298 22.0694 9.8874
1 9.52586 21.2404 9.90175
1 11.1118 22.063 10.6883
1 11.9055 21.2693 10.6883
1 11.8983 22.0348 9.88986
1 11.1096 21.3105 9.90608
1 12.6992 22.063 10.6883
1 13.4929 21.2693 10.6883
1 13.4903 22.0866 9.90763
1 12.6928 21.2397 9.87542
1 14.2866 22.063 10.6883
1 15.0803 21.2693 10.6883
1 15.0932 22.0611 9.89676
1 14.279 21.267 9.88867
1 15.874 22.063 10.6883
1 16.6677 21.2693 10.6883
1 16.6757 22.0492 9.89287
1 15.8652 21.2835 9.87486
1 17.4614 22.063 10.6883
1 18.2551 21.2693 10.6883
1 18.268 22.0458 9.89144
1 17.4626 21.2608 9.88649
1 19.0488 22.063 10.6883
1 19.8425 21.2693 10.6883
1 19.8468 22.0299 9.91708
1 19.0415 21.2466 9.90518
1 20.6362 22.063 10.6883
1 21.4299 21.2693 10.6883
1 21.4384 22.0817 9.9013
1 20.6485 21.2345 9.87514
1 22.2236 22.063 10.6883
1 23.0173 21.2693 10.6883
1 23.0181 22.0807 9.92837
1 22.2164 21.2665 9.93079
1 23.811 22.063 10.6883
1 24.6047 21.2693 10.6883
1 24.5946 22.0557 9.90322
1 23.8054 21.2659 9.8761
1 25.3984 22.063 10.6883
1 26.1921 21.2693 10.6883
1 26.2051 22.0779 9.91639
1 25.3948 21.2862 9.92367
1 26.9858 22.063 10.6883
1 27.7795 21.2693 10.6883
1 27.7577 22.0416 9.88879
1 26.9701 21.2744 9.90559
1 28.5732 22.063 10.6883
1 29.3669 21.2693 10.6883
1 29.2842 22.0737 9.84329
1 28.5765 21.2738 9.89251
1 30 20.4756 10.6883
1 0.793701 19.6819 10.6883
1 0.834615 20.4628 9.88258
1 0.0657222 19.68 9.82844
1 1.5874 20.4756 10.6883
1 2.3811 19.6819 10.6883
1 2.38892 20.4874 9.88255
1 1.5985 19.6728 9.88278
1 3.1748 20.4756 10.6883
1 3.9685 19.6819 10.6883
1 3.96806 20.4732 9.89493
1 3.16485 19.684 9.88591
1 4.7622 20.4756 10.6883
1 5.5559 19.6819 10.6883
1 5.55573 20.4657 9.9115
1 4.76682 19.657 9.90249
1 6.3496 20.4756 10.6883
1 7.1433 19.6819 10.6883
1 7.12187 20.4584 9.92552
1 6.34527 19.6745 9.89885
1 7.93701 20.4756 10.6883
1 8.73071 19.6819 10.6883
1 8.73177 20.4789 9.89279
1 7.93712 19.6771 9.90522
1 9.52441 20.4756 10.6883
1 10.3181 19.6819 10.6883
1 10.3019 20.4709 9.91456
1 9.50702 19.6694 9.89094
1 11.1118 20.4756 10.6883
1 11.9055 19.6819 10.6883
1 11.8853 20.496 9.91531
1 11.0892 19.7088 9.88127
1 12.6992 20.4756 10.6883
1 13.4929 19.6819 10.6883
1 13.4943 20.4805 9.89364
1 12.6771 19.7152 9.88574
1 14.2866 20.4756 10.6883
1 15.0803 19.6819 10.6883
1 15.0829 20.4748 9.88346
1 14.2533 19.6934 9.87956
1 15.874 20.4756 10.6883
1 16.6677 19.6819 10.6883
1 16.6599 20.4801 9.9094
1 15.8907 19.688 9.90022
1 17.4614 20.4756 10.6883
1 18.2551 19.6819 10.6883
1 18.2356 20.4446 9.87744
1 17.4566 19.6847 9.91428
1 19.0488 20.4756 10.6883
1 19.8425 19.6819 10.6883
1 19.8719 20.4777 9.89507
1 19.0759 19.6928 9.90129
1 20.6362 20.4756 10.6883
1 21.4299 19.6819 10.6883
1 21.4293 20.4635 9.89179
1 20.6534 19.6775 9.87975
1 22.2236 20.4756 10.6883
1 23.0173 19.6819 10.6883
1 23.0075 20.4827 9.88836
1 22.2112 19.6509 9.90081
1 23.811 20.4756 10.6883
1 24.6047 19.6819 10.6883
1 24.5829 20.495 9.89836
1 23.7991 19.6874 9.92068
1 25.3984 20.4756 10.6883
1 26.1921 19.6819 10.6883
1 26.1928 20.4866 9.89506
1 25.373 19.6853 9.89974
1 26.9858 20.4756 10.6883
1 27.7795 19.6819 10.6883
1 27.7644 20.469 9.88356
1 26.9692 19.662 9.90223
1 28.5732 20.4756 10.6883
1 29.3669 19.6819 10.6883
1 29.3079 20.474 9.87261
1 28.5452 19.6735 9.90465
1 30 18.8882 10.6883
1 0.793701 18.0945 10.6883
1 0.807721 18.8949 9.8998
1 0.0565249 18.1085 9.86588
1 1.5874 18.8882 10.6883
1 2.3811 18.0945 10.6883
1 2.38142 18.8948 9.87764
1 1.61627 18.1118 9.90444
1 3.1748 18.8882 10.6883
1 3.9685 18.0945 10.6883
1 3.96452 18.8726 9.89823
1 3.16964 18.0875 9.8951
1 4.7622 18.8882 10.6883
1 5.5559 18.0945 10.6883
1 5.57785 18.8657 9.87874
1 4.75625 18.1033 9.89347
1 6.3496 18.8882 10.6883
1 7.1433 18.0945 10.6883
1 7.13052 18.8758 9.89824
1 6.37291 18.0591 9.89495
1 7.93701 18.8882 10.6883
1 8.73071 18.0945 10.6883
1 8.7413 18.8904 9.9202
1 7.93239 18.1082 9.87557
1 9.52441 18.8882 10.6883
1 10.3181 18.0945 10.6883
1 10.3339 18.9128 9.87141
1 9.53388 18.1131 9.89589
1 11.1118 18.8882 10.6883
1 11.9055 18.0945 10.6883
1 11.9022 18.8798 9.86985
1 11.1229 18.1011 9.89257
1 12.6992 18.8882 10.6883
1 13.4929 18.0945 10.6883
1 13.4911 18.9173 9.89046
1 12.7064 18.1116 9.9177
1 14.2866 18.8882 10.6883
1 15.0803 18.0945 10.6883
1 15.0837 18.8913 9.88984
1 14.2935 18.1097 9.89159
1 15.874 18.8882 10.6883
1 16.6677 18.0945 10.6883
1 16.67 18.8888 9.89974
1 15.8867 18.1148 9.88479
1 17.4614 18.8882 10.6883
1 18.2551 18.0945 10.6883
1 18.2778 18.8782 9.89712
1 17.479 18.1023 9.89982
1 19.0488 18.8882 10.6883
1 19.8425 18.0945 10.6883
1 19.8673 18.8924 9.88991
1 19.0585 18.1102 9.90677
1 20.6362 18.8882 10.6883
1 21.4299 18.0945 10.6883
1 21.4305 18.8842 9.89481
1 20.6524 18.1096 9.90014
1 22.2236 18.8882 10.6883
1 23.0173 18.0945 10.6883
1 22.9958 18.8897 9.93366
1 22.2143 18.0864 9.9056
1 23.811 18.8882 10.6883
1 24.6047 18.0945 10.6883
1 24.5822 18.9027 9.90126
1 23.8228 18.1187 9.90517
1 25.3984 18.8882 10.6883
1 26.1921 18.0945 10.6883
1 26.1765 18.8858 9.88391
1 25.3763 18.073 9.89888
1 26.9858 18.8882 10.6883
1 27.7795 18.0945 10.6883
1 27.7493 18.8735 9.88018
1 26.9737 18.0945 9.89621
1 28.5732 18.8882 10.6883
1 29.3669 18.0945 10.6883
1 29.3 18.8741 9.86945
1 28.5154 18.1113 9.86731
1 30 17.3008 10.6883
1 0.793701 16.5071 10.6883
1 0.809831 17.3209 9.88892
1 0.074999 16.5113 9.88695
1 1.5874 17.3008 10.6883
1 2.3811 16.5071 10.6883
1 2.41816 17.3015 9.90224
1 1.63368 16.517 9.91472
1 3.1748 17.3008 10.6883
1 3.9685 16.5071 10.6883
1 3.98302 17.3053 9.90647
1 3.18247 16.4971 9.8948
1 4.7622 17.3008 10.6883
1 5.5559 16.5071 10.6883
1 5.56628 17.3101 9.88083
1 4.78472 16.5074 9.88365
1 6.3496 17.3008 10.6883
1 7.1433 16.5071 10.6883
1 7.16047 17.3232 9.91056
1 6.33591 16.5315 9.89956
1 7.93701 17.3008 10.6883
1 8.73071 16.5071 10.6883
1 8.72754 17.3015 9.92504
1 7.92186 16.5258 9.90556
1 9.52441 17.3008 10.6883
1 10.3181 16.5071 10.6883
1 10.3357 17.3028 9.90832
1 9.51987 16.5248 9.89904
1 11.1118 17.3008 10.6883
1 11.9055 16.5071 10.6883
1 11.9226 17.3325 9.87189
1 11.1236 16.5264 9.89383
1 12.6992 17.3008 10.6883
1 13.4929 16.5071 10.6883
1 13.5015 17.2906 9.89436
1 12.6693 16.5098 9.90047
1 14.2866 17.3008 10.6883
1 15.0803 16.5071 10.6883
1 15.0674 17.3144 9.88401
1 14.3017 16.4703 9.89512
1 15.874 17.3008 10.6883
1 16.6677 16.5071 10.6883
1 16.6489 17.3035 9.9011
1 15.8832 16.5232 9.89728
1 17.4614 17.3008 10.6883
1 18.2551 16.5071 10.6883
1 18.2587 17.3067 9.88136
1 17.4383 16.5289 9.88244
1 19.0488 17.3008 10.6883
1 19.8425 16.5071 10.6883
1 19.8568 17.2646 9.89234
1 19.0406 16.4871 9.90802
1 20.6362 17.3008 10.6883
1 21.4299 16.5071 10.6883
1 21.4045 17.2963 9.89777
1 20.6607 16.5107 9.89433
1 22.2236 17.3008 10.6883
1 23.0173 16.5071 10.6883
1 23.0056 17.3036 9.88948
1 22.1956 16.5189 9.89178
1 23.811 17.3008 10.6883
1 24.6047 16.5071 10.6883
1 24.6119 17.3074 9.88918
1 23.8161 16.5003 9.90464
1 25.3984 17.3008 10.6883
1 26.1921 16.5071 10.6883
1 26.1831 17.3016 9.89798
1 25.3951 16.4943 9.89151
1 26.9858 17.3008 10.6883
1 27.7795 16.5071 10.6883
1 27.7595 17.2937 9.88025
1 26.9789 16.497 9.87572
1 28.5732 17.3008 10.6883
1 29.3669 16.5071 10.6883
1 29.2843 17.3036 9.88568
1 28.5461 16.4837 9.87853
1 30 15.7134 10.6883
1 0.793701 14.9197 10.6883
1 0.826799 15.7377 9.8898
1 0.0737181 14.9606 9.86974
1 1.5874 15.7134 10.6883
1 2.3811 14.9197 10.6883
1 2.37683 15.6864 9.88567
1 1.58641 14.9282 9.88775
1 3.1748 15.7134 10.6883
1 3.9685 14.9197 10.6883
1 3.98143 15.7234 9.89448
1 3.19233 14.9253 9.8808
1 4.7622 15.7134 10.6883
1 5.5559 14.9197 10.6883
1 5.5509 15.7451 9.9089
1 4.7939 14.9259 9.91378
1 6.3496 15.7134 10.6883
1 7.1433 14.9197 10.6883
1 7.14585 15.7039 9.91202
1 6.37259 14.9151 9.89877
1 7.93701 15.7134 10.6883
1 8.73071 14.9197 10.6883
1 8.72141 15.7063 9.90863
1 7.92463 14.9254 9.87737
1 9.52441 15.7134 10.6883
1 10.3181 14.9197 10.6883
1 10.3309 15.6973 9.9055
1 9.55827 14.9136 9.88155
1 11.1118 15.7134 10.6883
1 11.9055 14.9197 10.6883
1 11.8901 15.7206 9.91184
1 11.1222 14.9242 9.88971
1 12.6992 15.7134 10.6883
1 13.4929 14.9197 10.6883
1 13.4762 15.705 9.90068
1 12.6837 14.9285 9.90004
1 14.2866 15.7134 10.6883
1 15.0803 14.9197 10.6883
1 15.0574 15.7062 9.92051
1 14.2862 14.9169 9.88945
1 15.874 15.7134 10.6883
1 16.6677 14.9197 10.6883
1 16.6645 15.7076 9.87803
1 15.869 14.8925 9.88884
1 17.4614 15.7134 10.6883
1 18.2551 14.9197 10.6883
1 18.2707 15.6875 9.87785
1 17.4572 14.9284 9.89337
1 19.0488 15.7134 10.6883
1 19.8425 14.9197 10.6883
1 19.8465 15.7022 9.89479
1 19.0491 14.9042 9.91374
1 20.6362 15.7134 10.6883
1 21.4299 14.9197 10.6883
1 21.416 15.7081 9.89511
1 20.6782 14.9153 9.89841
1 22.2236 15.7134 10.6883
1 23.0173 14.9197 10.6883
1 23.0093 15.7128 9.88796
1 22.2231 14.9351 9.88594
1 23.811 15.7134 10.6883
1 24.6047 14.9197 10.6883
1 24.6128 15.7172 9.88181
1 23.8272 14.9179 9.89935
1 25.3984 15.7134 10.6883
1 26.1921 14.9197 10.6883
1 26.1677 15.6958 9.87144
1 25.4037 14.9157 9.88263
1 26.9858 15.7134 10.6883
1 27.7795 14.9197 10.6883
1 27.7569 15.7064 9.90643
1 26.98 14.8889 9.90275
1 28.5732 15.7134 10.6883
1 29.3669 14.9197 10.6883
1 29.3189 15.7357 9.87701
1 28.5374 14.9239 9.89518
1 30 14.126 10.6883
1 0.793701 13.3323 10.6883
1 0.829517 14.1395 9.89818
1 0.0970598 13.3487 9.87478
1 1.5874 14.126 10.6883
1 2.3811 13.3323 10.6883
1 2.39299 14.1495 9.90565
1 1.58849 13.3629 9.89241
1 3.1748 14.126 10.6883
1 3.9685 13.3323 10.6883
1 3.98937 14.1083 9.87747
1 3.17029 13.3537 9.90027
1 4.7622 14.126 10.6883
1 5.5559 13.3323 10.6883
1 5.56752 14.1166 9.89244
1 4.77295 13.3393 9.87145
1 6.3496 14.126 10.6883
1 7.1433 13.3323 10.6883
1 7.18837 14.1039 9.89344
1 6.33459 13.3465 9.90304
1 7.93701 14.126 10.6883
1 8.73071 13.3323 10.6883
1 8.71701 14.1267 9.90619
1 7.93931 13.3576 9.88152
1 9.52441 14.126 10.6883
1 10.3181 13.3323 10.6883
1 10.3238 14.1027 9.91635
1 9.55661 13.3296 9.9032
1 11.1118 14.126 10.6883
1 11.9055 13.3323 10.6883
1 11.9133 14.123 9.89688
1 11.1153 13.343 9.91356
1 12.6992 14.126 10.6883
1 13.4929 13.3323 10.6883
1 13.4537 14.1337 9.91332
1 12.6976 13.332 9.86934
1 14.2866 14.126 10.6883
1 15.0803 13.3323 10.6883
1 15.0925 14.0917 9.89503
1 14.2718 13.3376 9.88043
1 15.874 14.126 10.6883
1 16.6677 13.3323 10.6883
1 16.6764 14.1232 9.87646
1 15.8724 13.3407 9.88697
1 17.4614 14.126 10.6883
1 18.2551 13.3323 10.6883
1 18.2375 14.1237 9.89457
1 17.4377 13.3386 9.87158
1 19.0488 14.126 10.6883
1 19.8425 13.3323 10.6883
1 19.8613 14.1285 9.9002
1 19.0255 13.3345 9.88589
1 20.6362 14.126 10.6883
1 21.4299 13.3323 10.6883
1 21.4382 14.0903 9.86394
1 20.6272 13.305 9.89825
1 22.2236 14.126 10.6883
1 23.0173 13.3323 10.6883
1 23.0117 14.1306 9.88707
1 22.2261 13.3283 9.90851
1 23.811 14.126 10.6883
1 24.6047 13.3323 10.6883
1 24.6116 14.1075 9.90135
1 23.7836 13.3205 9.91675
1 25.3984 14.126 10.6883
1 26.1921 13.3323 10.6883
1 26.1731 14.1132 9.87986
1 25.4149 13.3403 9.90686
1 26.9858 14.126 10.6883
1 27.7795 13.3323 10.6883
1 27.7345 14.1288 9.89947
1 26.9714 13.3427 9.90302
1 28.5732 14.126 10.6883
1 29.3669 13.3323 10.6883
1 29.3138 14.1438 9.8401
1 28.5569 13.33 9.89892
1 30 12.5386 10.6883
1 0.793701 11.7449 10.6883
1 0.837205 12.5296 9.88671
1 0.0744314 11.7182 9.8733
1 1.5874 12.5386 10.6883
1 2.3811 11.7449 10.6883
1 2.38317 12.5431 9.89688
1 1.59888 11.7468 9.90299
1 3.1748 12.5386 10.6883
1 3.9685 11.7449 10.6883
1 3.95609 12.5462 9.92275
1 3.16658 11.7508 9.90525
1 4.7622 12.5386 10.6883
1 5.5559 11.7449 10.6883
1 5.55327 12.5288 9.8847
1 4.76659 11.7352 9.87143
1 6.3496 12.5386 10.6883
1 7.1433 11.7449 10.6883
1 7.15591 12.5266 9.88514
1 6.34496 11.765 9.89795
1 7.93701 12.5386 10.6883
1 8.73071 11.7449 10.6883
1 8.70141 12.5752 9.90925
1 7.93885 11.7254 9.91288
1 9.52441 12.5386 10.6883
1 10.3181 11.7449 10.6883
1 10.3053 12.5439 9.88616
1 9.52475 11.7416 9.89524
1 11.1118 12.5386 10.6883
1 11.9055 11.7449 10.6883
1 11.9106 12.5335 9.91328
1 11.1032 11.7425 9.90291
1 12.6992 12.5386 10.6883
1 13.4929 11.7449 10.6883
1 13.4621 12.5063 9.87195
1 12.6814 11.7441 9.88577
1 14.2866 12.5386 10.6883
1 15.0803 11.7449 10.6883
1 15.0753 12.5403 9.878
1 14.2612 11.7496 9.90012
1 15.874 12.5386 10.6883
1 16.6677 11.7449 10.6883
1 16.6527 12.5078 9.93246
1 15.8995 11.7188 9.89175
1 17.4614 12.5386 10.6883
1 18.2551 11.7449 10.6883
1 18.2674 12.5456 9.86644
1 17.4602 11.7628 9.88964
1 19.0488 12.5386 10.6883
1 19.8425 11.7449 10.6883
1 19.8296 12.5391 9.90539
1 19.0295 11.7372 9.8826
1 20.6362 12.5386 10.6883
1 21.4299 11.7449 10.6883
1 21.4314 12.5374 9.91979
1 20.6606 11.7681 9.90075
1 22.2236 12.5386 10.6883
1 23.0173 11.7449 10.6883
1 23.0005 12.5126 9.9056
1 22.202 11.7151 9.90052
1 23.811 12.5386 10.6883
1 24.6047 11.7449 10.6883
1 24.6057 12.5432 9.90238
1 23.8119 11.7481 9.903
1 25.3984 12.5386 10.6883
1 26.1921 11.7449 10.6883
1 26.1829 12.5303 9.89586
1 25.4026 11.7404 9.91211
1 26.9858 12.5386 10.6883
1 27.7795 11.7449 10.6883
1 27.7787 12.511 9.90673
1 26.9627 11.7203 9.88079
1 28.5732 12.5386 10.6883
1 29.3669 11.7449 10.6883
1 29.3146 12.5412 9.88176
1 28.5419 11.7479 9.88268
1 30 10.9512 10.6883
1 0.793701 10.1575 10.6883
1 0.841382 10.9558 9.90783
1 0.0643848 10.1562 9.86927
1 1.5874 10.9512 10.6883
1 2.3811 10.1575 10.6883
1 2.41425 10.9456 9.90386
1 1.62004 10.1536 9.87388
1 3.1748 10.9512 10.6883
1 3.9685 10.1575 10.6883
1 3.95677 10.9548 9.88576
1 3.17698 10.1663 9.87319
1 4.7622 10.9512 10.6883
1 5.5559 10.1575 10.6883
1 5.56123 10.9373 9.90908
1 4.75323 10.1556 9.89512
1 6.3496 10.9512 10.6883
1 7.1433 10.1575 10.6883
1 7.12445 10.9442 9.91195
1 6.37137 10.1583 9.8997
1 7.93701 10.9512 10.6883
1 8.73071 10.1575 10.6883
1 8.72438 10.9568 9.88472
1 7.94927 10.1403 9.9124
1 9.52441 10.9512 10.6883
1 10.3181 10.1575 10.6883
1 10.3327 10.9543 9.88165
1 9.55612 10.1578 9.90023
1 11.1118 10.9512 10.6883
1 11.9055 10.1575 10.6883
1 11.9063 10.9364 9.88283
1 11.1177 10.1425 9.87523
1 12.6992 10.9512 10.6883
1 13.4929 10.1575 10.6883
1 13.4907 10.9329 9.89538
1 12.7313 10.1504 9.90047
1 14.2866 10.9512 10.6883
1 15.0803 10.1575 10.6883
1 15.0775 10.9346 9.90907
1 14.3035 10.1381 9.89467
1 15.874 10.9512 10.6883
1 16.6677 10.1575 10.6883
1 16.6563 10.9493 9.87667
1 15.8456 10.1497 9.90836
1 17.4614 10.9512 10.6883
1 18.2551 10.1575 10.6883
1 18.2471 10.947 9.88997
1 17.4424 10.1243 9.87052
1 19.0488 10.9512 10.6883
1 19.8425 10.1575 10.6883
1 19.8458 10.9683 9.86875
1 19.0649 10.1575 9.91015
1 20.6362 10.9512 10.6883
1 21.4299 10.1575 10.6883
1 21.3996 10.9253 9.87972
1 20.6161 10.1371 9.88901
1 22.2236 10.9512 10.6883
1 23.0173 10.1575 10.6883
1 22.9922 10.9098 9.90426
1 22.1953 10.1552 9.88365
1 23.811 10.9512 10.6883
1 24.6047 10.1575 10.6883
1 24.5843 10.9672 9.88803
1 23.8131 10.148 9.90602
1 25.3984 10.9512 10.6883
1 26.1921 10.1575 10.6883
1 26.2081 10.9517 9.86927
1 25.3938 10.1648 9.89995
1 26.9858 10.9512 10.6883
1 27.7795 10.1575 10.6883
1 27.7586 10.9408 9.89259
1 26.9697 10.153 9.9052
1 28.5732 10.9512 10.6883
1 29.3669 10.1575 10.6883
1 29.2903 10.9709 9.85578
1 28.5387 10.1404 9.87937
1 30 9.36379 10.6883
1 0.793701 8.57009 10.6883
1 0.835483 9.37104 9.90482
1 0.0848214 8.6007 9.86146
1 1.5874 9.36379 10.6883
1 2.3811 8.57009 10.6883
1 2.37315 9.35 9.90141
1 1.60396 8.57578 9.87963
1 3.1748 9.36379 10.6883
1 3.9685 8.57009 10.6883
1 3.98535 9.39558 9.87319
1 3.19746 8.59549 9.88608
1 4.7622 9.36379 10.6883
1 5.5559 8.57009 10.6883
1 5.56116 9.36673 9.88408
1 4.77067 8.6089 9.9134
1 6.3496 9.36379 10.6883
1 7.1433 8.57009 10.6883
1 7.15788 9.36816 9.89657
1 6.32544 8.58383 9.89484
1 7.93701 9.36379 10.6883
1 8.73071 8.57009 10.6883
1 8.73444 9.33246 9.91402
1 7.95639 8.54347 9.88917
1 9.52441 9.36379 10.6883
1 10.3181 8.57009 10.6883
1 10.3211 9.35132 9.90829
1 9.50152 8.56335 9.895
1 11.1118 9.36379 10.6883
1 11.9055 8.57009 10.6883
1 11.895 9.36661 9.90073
1 11.1017 8.56247 9.90204
1 12.6992 9.36379 10.6883
1 13.4929 8.57009 10.6883
1 13.4687 9.36071 9.89266
1 12.6878 8.58051 9.87995
1 14.2866 9.36379 10.6883
1 15.0803 8.57009 10.6883
1 15.085 9.34409 9.88009
1 14.2728 8.54689 9.92063
1 15.874 9.36379 10.6883
1 16.6677 8.57009 10.6883
1 16.663 9.36941 9.89966
1 15.8991 8.55999 9.89639
1 17.4614 9.36379 10.6883
1 18.2551 8.57009 10.6883
1 18.2878 9.35522 9.87422
1 17.4606 8.58485 9.86268
1 19.0488 9.36379 10.6883
1 19.8425 8.57009 10.6883
1 19.8463 9.362 9.8852
1 19.0852 8.57983 9.88645
1 20.6362 9.36379 10.6883
1 21.4299 8.57009 10.6883
1 21.4203 9.366 9.88189
1 20.6191 8.57605 9.91002
1 22.2236 9.36379 10.6883
1 23.0173 8.57009 10.6883
1 23.0258 9.35141 9.90077
1 22.2327 8.55968 9.88171
1 23.811 9.36379 10.6883
1 24.6047 8.57009 10.6883
1 24.6022 9.35132 9.91976
1 23.8194 8.56712 9.88498
1 25.3984 9.36379 10.6883
1 26.1921 8.57009 10.6883
1 26.1812 9.35917 9.91667
1 25.4096 8.57829 9.91433
1 26.9858 9.36379 10.6883
1 27.7795 8.57009 10.6883
1 27.7517 9.35707 9.88419
1 26.9628 8.55183 9.89499
1 28.5732 9.36379 10.6883
1 29.3669 8.57009 10.6883
1 29.2921 9.36416 9.85062
1 28.5597 8.55432 9.88535
1 30 7.77639 10.6883
1 0.793701 6.98268 10.6883
1 0.82639 7.80057 9.8807
1 0.0760738 6.97689 9.84651
1 1.5874 7.77639 10.6883
1 2.3811 6.98268 10.6883
1 2.39949 7.78199 9.89862
1 1.58397 6.99654 9.89382
1 3.1748 7.77639 10.6883
1 3.9685 6.98268 10.6883
1 3.98201 7.79169 9.89719
1 3.19949 6.99919 9.92096
1 4.7622 7.77639 10.6883
1 5.5559 6.98268 10.6883
1 5.55371 7.78121 9.89242
1 4.79398 6.97053 9.91663
1 6.3496 7.77639 10.6883
1 7.1433 6.98268 10.6883
1 7.14399 7.76783 9.8977
1 6.32245 6.99653 9.89356
1 7.93701 7.77639 10.6883
1 8.73071 6.98268 10.6883
1 8.72824 7.76883 9.89402
1 7.93097 6.98217 9.89661
1 9.52441 7.77639 10.6883
1 10.3181 6.98268 10.6883
1 10.3062 7.77733 9.89847
1 9.54599 6.97015 9.88031
1 11.1118 7.77639 10.6883
1 11.9055 6.98268 10.6883
1 11.8836 7.79098 9.90872
1 11.1097 7.00127 9.87812
1 12.6992 7.77639 10.6883
1 13.4929 6.98268 10.6883
1 13.4765 7.7956 9.89749
1 12.7045 7.00265 9.90833
1 14.2866 7.77639 10.6883
1 15.0803 6.98268 10.6883
1 15.1145 7.78107 9.91309
1 14.2733 6.9874 9.89028
1 15.874 7.77639 10.6883
1 16.6677 6.98268 10.6883
1 16.6814 7.77146 9.89576
1 15.874 6.96947 9.93327
1 17.4614 7.77639 10.6883
1 18.2551 6.98268 10.6883
1 18.2718 7.77131 9.88919
1 17.4544 6.98985 9.87621
1 19.0488 7.77639 10.6883
1 19.8425 6.98268 10.6883
1 19.8579 7.78494 9.87847
1 19.0399 6.97712 9.90431
1 20.6362 7.77639 10.6883
1 21.4299 6.98268 10.6883
1 21.4274 7.78737 9.90303
1 20.6653 6.97735 9.88301
1 22.2236 7.77639 10.6883
1 23.0173 6.98268 10.6883
1 23.0253 7.78793 9.87075
1 22.2311 6.97816 9.87914
1 23.811 7.77639 10.6883
1 24.6047 6.98268 10.6883
1 24.5767 7.7608 9.86931
1 23.7857 6.96776 9.89687
1 25.3984 7.77639 10.6883
1 26.1921 6.98268 10.6883
1 26.2038 7.77418 9.90817
1 25.4101 6.96179 9.89614
1 26.9858 7.77639 10.6883
1 27.7795 6.98268 10.6883
1 27.7548 7.77271 9.89573
1 27.0115 6.98606 9.90529
1 28.5732 7.77639 10.6883
1 29.3669 6.98268 10.6883
1 29.306 7.77041 9.85409
1 28.5564 6.99853 9.88596
1 30 6.18898 10.6883
1 0.793701 5.39528 10.6883
1 0.831662 6.18616 9.87202
1 0.0905513 5.41268 9.8624
1 1.5874 6.18898 10.6883
1 2.3811 5.39528 10.6883
1 2.37873 6.16642 9.88656
1 1.6282 5.39212 9.91197
1 3.1748 6.18898 10.6883
1 3.9685 5.39528 10.6883
1 3.97776 6.22512 9.90881
1 3.1917 5.39945 9.89861
1 4.7622 6.18898 10.6883
1 5.5559 5.39528 10.6883
1 5.55121 6.19659 9.88622
1 4.7744 5.387 9.86416
1 6.3496 6.18898 10.6883
1 7.1433 5.39528 10.6883
1 7.15218 6.18669 9.92322
1 6.34439 5.38405 9.87079
1 7.93701 6.18898 10.6883
1 8.73071 5.39528 10.6883
1 8.72777 6.19275 9.88051
1 7.92974 5.39228 9.90391