9376
Atoms. Timestep: 4000000
1 30 3.55271e-15 10.7704
1 0.793701 29.2063 10.7704
1 0.834659 29.9497 9.94072
1 0.0699177 29.2073 9.93297
1 1.5874 3.55271e-15 10.7704
1 2.3811 29.2063 10.7704
1 2.42201 29.9322 9.94175
1 1.59899 29.2282 9.98122
1 3.1748 3.55271e-15 10.7704
1 3.9685 29.2063 10.7704
1 3.97433 29.9128 9.92756
1 3.18663 29.1589 9.96329
1 4.7622 3.55271e-15 10.7704
1 5.5559 29.2063 10.7704
1 5.54293 29.9559 9.92823
1 4.77637 29.1863 9.96943
1 6.3496 3.55271e-15 10.7704
1 7.1433 29.2063 10.7704
1 7.13711 29.9409 9.96006
1 6.3644 29.1889 10.005
1 7.93701 3.55271e-15 10.7704
1 8.73071 29.2063 10.7704
1 8.73551 29.9195 9.93223
1 7.92067 29.1508 9.9917
1 9.52441 3.55271e-15 10.7704
1 10.3181 29.2063 10.7704
1 10.3232 29.913 9.93176
1 9.53085 29.1814 9.96711
1 11.1118 3.55271e-15 10.7704
1 11.9055 29.2063 10.7704
1 11.9156 29.9483 9.95315
1 11.1217 29.2073 9.97145
1 12.6992 3.55271e-15 10.7704
1 13.4929 29.2063 10.7704
1 13.4897 29.9092 9.947
1 12.7033 29.1907 9.95635
1 14.2866 3.55271e-15 10.7704
1 15.0803 29.2063 10.7704
1 15.0878 29.9322 9.96278
1 14.2719 29.1859 9.9668
1 15.874 3.55271e-15 10.7704
1 16.6677 29.2063 10.7704
1 16.6804 29.9046 9.93578
1 15.8652 29.1635 9.98303
1 17.4614 3.55271e-15 10.7704
1 18.2551 29.2063 10.7704
1 18.2405 29.9184 9.93467
1 17.4671 29.1393 9.97479
1 19.0488 3.55271e-15 10.7704
1 19.8425 29.2063 10.7704
1 19.8681 29.9365 9.94256
1 19.0528 29.1695 9.96737
1 20.6362 3.55271e-15 10.7704
1 21.4299 29.2063 10.7704
1 21.4295 29.9459 9.93536
1 20.6552 29.166 9.96997
1 22.2236 3.55271e-15 10.7704
1 23.0173 29.2063 10.7704
1 23.0245 29.8985 9.95151
1 22.224 29.1599 9.96179
1 23.811 3.55271e-15 10.7704
1 24.6047 29.2063 10.7704
1 24.616 29.9294 9.94769
1 23.8213 29.1695 9.96431
1 25.3984 3.55271e-15 10.7704
1 26.1921 29.2063 10.7704
1 26.1731 29.9424 9.94671
1 25.3901 29.172 9.95302
1 26.9858 3.55271e-15 10.7704
1 27.7795 29.2063 10.7704
1 27.7679 29.9059 9.92002
1 26.9472 29.1681 9.97616
1 28.5732 3.55271e-15 10.7704
1 29.3669 29.2063 10.7704
1 29.3018 29.9432 9.91119
1 28.5413 29.1671 9.95865
1 30 28.4126 10.7704
1 0.793701 27.6189 10.7704
1 0.840808 28.4258 9.96958
1 0.0876154 27.5985 9.92733
1 1.5874 28.4126 10.7704
1 2.3811 27.6189 10.7704
1 2.42146 28.4009 9.97407
1 1.58861 27.6167 9.97976
1 3.1748 28.4126 10.7704
1 3.9685 27.6189 10.7704
1 3.96374 28.3807 9.9657
1 3.18698 27.6124 9.97953
1 4.7622 28.4126 10.7704
1 5.5559 27.6189 10.7704
1 5.56432 28.3989 9.97527
1 4.74375 27.5877 9.97049
1 6.3496 28.4126 10.7704
1 7.1433 27.6189 10.7704
1 7.1202 28.3807 9.97159
1 6.33635 27.6077 9.94374
1 7.93701 28.4126 10.7704
1 8.73071 27.6189 10.7704
1 8.7014 28.3975 9.97353
1 7.92048 27.5944 9.99084
1 9.52441 28.4126 10.7704
1 10.3181 27.6189 10.7704
1 10.3266 28.4161 9.95198
1 9.53363 27.5888 9.96303
1 11.1118 28.4126 10.7704
1 11.9055 27.6189 10.7704
1 11.9086 28.3893 9.98833
1 11.095 27.6099 9.99037
1 12.6992 28.4126 10.7704
1 13.4929 27.6189 10.7704
1 13.4878 28.4082 9.95255
1 12.6985 27.5745 9.98492
1 14.2866 28.4126 10.7704
1 15.0803 27.6189 10.7704
1 15.0639 28.3841 10.0102
1 14.2965 27.598 9.95229
1 15.874 28.4126 10.7704
1 16.6677 27.6189 10.7704
1 16.6526 28.3974 9.98457
1 15.8734 27.6127 9.98498
1 17.4614 28.4126 10.7704
1 18.2551 27.6189 10.7704
1 18.2472 28.3824 9.97564
1 17.431 27.588 9.96618
1 19.0488 28.4126 10.7704
1 19.8425 27.6189 10.7704
1 19.8292 28.397 9.96304
1 19.0582 27.5834 9.95148
1 20.6362 28.4126 10.7704
1 21.4299 27.6189 10.7704
1 21.4342 28.3767 9.96573
1 20.6297 27.5789 9.967
1 22.2236 28.4126 10.7704
1 23.0173 27.6189 10.7704
1 23.0288 28.3984 9.96134
1 22.2348 27.6117 9.96082
1 23.811 28.4126 10.7704
1 24.6047 27.6189 10.7704
1 24.6199 28.3982 9.98856
1 23.8007 27.6001 9.97663
1 25.3984 28.4126 10.7704
1 26.1921 27.6189 10.7704
1 26.192 28.393 9.97365
1 25.4027 27.6031 9.96993
1 26.9858 28.4126 10.7704
1 27.7795 27.6189 10.7704
1 27.7568 28.4034 9.96945
1 26.9778 27.6353 9.96352
1 28.5732 28.4126 10.7704
1 29.3669 27.6189 10.7704
1 29.3009 28.4156 9.93614
1 28.5176 27.6344 9.96888
1 30 26.8252 10.7704
1 0.793701 26.0315 10.7704
1 0.846025 26.8304 9.9817
1 0.0589174 26.04 9.92124
1 1.5874 26.8252 10.7704
1 2.3811 26.0315 10.7704
1 2.36738 26.8384 9.95561
1 1.60646 26.0328 9.95507
1 3.1748 26.8252 10.7704
1 3.9685 26.0315 10.7704
1 3.95451 26.8211 9.96035
1 3.16622 26.0578 9.95585
1 4.7622 26.8252 10.7704
1 5.5559 26.0315 10.7704
1 5.56119 26.8152 9.95715
1 4.75822 26.0326 9.96508
1 6.3496 26.8252 10.7704
1 7.1433 26.0315 10.7704
1 7.12122 26.8119 9.97474
1 6.3685 26.0394 9.98369
1 7.93701 26.8252 10.7704
1 8.73071 26.0315 10.7704
1 8.74052 26.828 9.97129
1 7.91342 26.0447 9.98701
1 9.52441 26.8252 10.7704
1 10.3181 26.0315 10.7704
1 10.3201 26.8152 9.98912
1 9.51434 26.0236 9.98535
1 11.1118 26.8252 10.7704
1 11.9055 26.0315 10.7704
1 11.8901 26.8074 10.0025
1 11.1112 26.0192 9.99158
1 12.6992 26.8252 10.7704
1 13.4929 26.0315 10.7704
1 13.4969 26.8037 9.9906
1 12.6934 25.9987 9.96673
1 14.2866 26.8252 10.7704
1 15.0803 26.0315 10.7704
1 15.0709 26.8217 9.9656
1 14.2885 26.031 9.96321
1 15.874 26.8252 10.7704
1 16.6677 26.0315 10.7704
1 16.6718 26.8085 9.9877
1 15.8954 26.0289 9.98858
1 17.4614 26.8252 10.7704
1 18.2551 26.0315 10.7704
1 18.2673 26.8139 9.97442
1 17.4709 26.0045 9.97132
1 19.0488 26.8252 10.7704
1 19.8425 26.0315 10.7704
1 19.8194 26.7959 9.96625
1 19.0648 25.9912 9.9722
1 20.6362 26.8252 10.7704
1 21.4299 26.0315 10.7704
1 21.4466 26.8118 9.96232
1 20.6458 26.0185 9.99649
1 22.2236 26.8252 10.7704
1 23.0173 26.0315 10.7704
1 23.0169 26.8181 9.96865
1 22.2246 26.0237 9.98074
1 23.811 26.8252 10.7704
1 24.6047 26.0315 10.7704
1 24.6102 26.8338 9.97147
1 23.8069 26.0436 9.93275
1 25.3984 26.8252 10.7704
1 26.1921 26.0315 10.7704
1 26.2129 26.8003 9.96022
1 25.3978 26.0429 9.99571
1 26.9858 26.8252 10.7704
1 27.7795 26.0315 10.7704
1 27.7703 26.8021 9.9611
1 26.9839 26.0221 9.96535
1 28.5732 26.8252 10.7704
1 29.3669 26.0315 10.7704
1 29.2959 26.8308 9.94236
1 28.5497 26.0333 9.98095
1 30 25.2378 10.7704
1 0.793701 24.4441 10.7704
1 0.809202 25.2447 9.97974
1 0.104832 24.4174 9.96245
1 1.5874 25.2378 10.7704
1 2.3811 24.4441 10.7704
1 2.35282 25.2269 9.9548
1 1.59819 24.4238 9.9464
1 3.1748 25.2378 10.7704
1 3.9685 24.4441 10.7704
1 3.94854 25.2648 9.98371
1 3.16845 24.4523 9.95914
1 4.7622 25.2378 10.7704
1 5.5559 24.4441 10.7704
1 5.5677 25.2419 9.97752
1 4.75185 24.4352 9.98826
1 6.3496 25.2378 10.7704
1 7.1433 24.4441 10.7704
1 7.1432 25.2475 9.96327
1 6.35782 24.4635 9.97351
1 7.93701 25.2378 10.7704
1 8.73071 24.4441 10.7704
1 8.69831 25.25 9.98634
1 7.9296 24.4547 9.9711
1 9.52441 25.2378 10.7704
1 10.3181 24.4441 10.7704
1 10.3297 25.227 9.97656
1 9.50379 24.4246 9.98955
1 11.1118 25.2378 10.7704
1 11.9055 24.4441 10.7704
1 11.8858 25.2331 9.98587
1 11.1183 24.4309 9.9719
1 12.6992 25.2378 10.7704
1 13.4929 24.4441 10.7704
1 13.4975 25.2315 9.98556
1 12.6914 24.4362 9.95438
1 14.2866 25.2378 10.7704
1 15.0803 24.4441 10.7704
1 15.0537 25.2383 9.98472
1 14.2956 24.4384 9.95785
1 15.874 25.2378 10.7704
1 16.6677 24.4441 10.7704
1 16.6616 25.2251 9.97072
1 15.8728 24.4464 9.99035
1 17.4614 25.2378 10.7704
1 18.2551 24.4441 10.7704
1 18.2191 25.2116 9.98259
1 17.4455 24.4231 9.96835
1 19.0488 25.2378 10.7704
1 19.8425 24.4441 10.7704
1 19.8523 25.2224 9.96046
1 19.0713 24.4337 9.96634
1 20.6362 25.2378 10.7704
1 21.4299 24.4441 10.7704
1 21.4277 25.2334 9.98406
1 20.6515 24.4305 9.98881
1 22.2236 25.2378 10.7704
1 23.0173 24.4441 10.7704
1 23.0186 25.2293 9.97822
1 22.2173 24.4449 9.972
1 23.811 25.2378 10.7704
1 24.6047 24.4441 10.7704
1 24.6041 25.2352 9.98204
1 23.8222 24.4165 9.9916
1 25.3984 25.2378 10.7704
1 26.1921 24.4441 10.7704
1 26.1927 25.2634 10.0044
1 25.4045 24.4369 9.96588
1 26.9858 25.2378 10.7704
1 27.7795 24.4441 10.7704
1 27.7815 25.2222 9.96496
1 26.9464 24.469 9.99934
1 28.5732 25.2378 10.7704
1 29.3669 24.4441 10.7704
1 29.3017 25.2167 9.92646
1 28.5481 24.4296 9.97943
1 30 23.6504 10.7704
1 0.793701 22.8567 10.7704
1 0.861825 23.6354 9.96376
1 0.0767707 22.8349 9.94317
1 1.5874 23.6504 10.7704
1 2.3811 22.8567 10.7704
1 2.38333 23.6376 9.97322
1 1.60836 22.8643 9.97344
1 3.1748 23.6504 10.7704
1 3.9685 22.8567 10.7704
1 3.96057 23.6602 9.95322
1 3.184 22.861 9.9989
1 4.7622 23.6504 10.7704
1 5.5559 22.8567 10.7704
1 5.56618 23.6647 9.97011
1 4.75796 22.8581 9.98405
1 6.3496 23.6504 10.7704
1 7.1433 22.8567 10.7704
1 7.15733 23.6424 9.95261
1 6.34089 22.834 9.98337
1 7.93701 23.6504 10.7704
1 8.73071 22.8567 10.7704
1 8.70611 23.6377 9.95512
1 7.94507 22.8416 9.98669
1 9.52441 23.6504 10.7704
1 10.3181 22.8567 10.7704
1 10.3159 23.665 9.96786
1 9.52826 22.8488 9.99516
1 11.1118 23.6504 10.7704
1 11.9055 22.8567 10.7704
1 11.9008 23.6426 9.97535
1 11.0967 22.8957 9.98987
1 12.6992 23.6504 10.7704
1 13.4929 22.8567 10.7704
1 13.4984 23.6532 9.96782
1 12.7295 22.8602 9.96362
1 14.2866 23.6504 10.7704
1 15.0803 22.8567 10.7704
1 15.0765 23.6548 9.98185
1 14.3214 22.8563 9.98603
1 15.874 23.6504 10.7704
1 16.6677 22.8567 10.7704
1 16.6679 23.6499 9.97777
1 15.8678 22.8461 9.98427
1 17.4614 23.6504 10.7704
1 18.2551 22.8567 10.7704
1 18.2708 23.6511 9.9987
1 17.4559 22.8692 10.0006
1 19.0488 23.6504 10.7704
1 19.8425 22.8567 10.7704
1 19.8637 23.6384 9.97666
1 19.0637 22.8601 9.97315
1 20.6362 23.6504 10.7704
1 21.4299 22.8567 10.7704
1 21.4263 23.6276 9.99323
1 20.6259 22.8421 9.9844
1 22.2236 23.6504 10.7704
1 23.0173 22.8567 10.7704
1 23.0207 23.6833 9.96979
1 22.2163 22.8782 9.99089
1 23.811 23.6504 10.7704
1 24.6047 22.8567 10.7704
1 24.6141 23.6248 9.97595
1 23.8016 22.8297 9.97018
1 25.3984 23.6504 10.7704
1 26.1921 22.8567 10.7704
1 26.1916 23.6653 9.97368
1 25.4035 22.8304 9.97939
1 26.9858 23.6504 10.7704
1 27.7795 22.8567 10.7704
1 27.7398 23.6734 9.98447
1 26.9602 22.8347 9.98319
1 28.5732 23.6504 10.7704
1 29.3669 22.8567 10.7704
1 29.326 23.6436 9.95498
1 28.5124 22.8669 9.97893
1 30 22.063 10.7704
1 0.793701 21.2693 10.7704
1 0.823474 22.0527 9.96672
1 0.0616721 21.2845 9.96526
1 1.5874 22.063 10.7704
1 2.3811 21.2693 10.7704
1 2.39509 22.075 9.96938
1 1.61669 21.288 9.97049
1 3.1748 22.063 10.7704
1 3.9685 21.2693 10.7704
1 3.98353 22.0625 9.98468
1 3.15923 21.287 9.95465
1 4.7622 22.063 10.7704
1 5.5559 21.2693 10.7704
1 5.55151 22.0474 9.96414
1 4.75247 21.2629 9.96287
1 6.3496 22.063 10.7704
1 7.1433 21.2693 10.7704
1 7.12385 22.0469 9.98287
1 6.34496 21.2446 9.98209
1 7.93701 22.063 10.7704
1 8.73071 21.2693 10.7704
1 8.71472 22.0613 9.97271
1 7.94753 21.2534 9.96713
1 9.52441 22.063 10.7704
1 10.3181 21.2693 10.7704
1 10.3104 22.0612 9.99655
1 9.50566 21.2571 9.96114
1 11.1118 22.063 10.7704
1 11.9055 21.2693 10.7704
1 11.8915 22.0593 9.97861
1 11.1153 21.2833 9.99461
1 12.6992 22.063 10.7704
1 13.4929 21.2693 10.7704
1 13.4882 22.0647 9.97262
1 12.7023 21.2542 9.97547
1 14.2866 22.063 10.7704
1 15.0803 21.2693 10.7704
1 15.0942 22.0413 9.98554
1 14.2788 21.2884 10.002
1 15.874 22.063 10.7704
1 16.6677 21.2693 10.7704
1 16.6782 22.0537 9.99035
1 15.8874 21.2638 9.99963
1 17.4614 22.063 10.7704
1 18.2551 21.2693 10.7704
1 18.2531 22.065 9.98448
1 17.4451 21.26 9.98697
1 19.0488 22.063 10.7704
1 19.8425 21.2693 10.7704
1 19.856 22.0526 9.95869
1 19.0511 21.2396 10.0161
1 20.6362 22.063 10.7704
1 21.4299 21.2693 10.7704
1 21.4345 22.0891 9.98572
1 20.6447 21.2605 9.97168
1 22.2236 22.063 10.7704
1 23.0173 21.2693 10.7704
1 23.0122 22.0775 9.99846
1 22.2239 21.2514 9.99244
1 23.811 22.063 10.7704
1 24.6047 21.2693 10.7704
1 24.6029 22.0697 9.9735
1 23.8165 21.2713 9.98394
1 25.3984 22.063 10.7704
1 26.1921 21.2693 10.7704
1 26.1899 22.0552 9.95394
1 25.4161 21.2898 9.9694
1 26.9858 22.063 10.7704
1 27.7795 21.2693 10.7704
1 27.7469 22.0637 9.9729
1 26.9763 21.2632 9.96369
1 28.5732 22.063 10.7704
1 29.3669 21.2693 10.7704
1 29.2862 22.082 9.9839
1 28.5426 21.2644 9.96968
1 30 20.4756 10.7704
1 0.793701 19.6819 10.7704
1 0.829848 20.4856 9.9705
1 0.0634746 19.694 9.93798
1 1.5874 20.4756 10.7704
1 2.3811 19.6819 10.7704
1 2.41346 20.4693 9.96618
1 1.58501 19.6918 9.95834
1 3.1748 20.4756 10.7704
1 3.9685 19.6819 10.7704
1 3.98172 20.4817 9.9753
1 3.17764 19.6705 9.96675
1 4.7622 20.4756 10.7704
1 5.5559 19.6819 10.7704
1 5.55501 20.4688 9.96314
1 4.78596 19.6668 9.96075
1 6.3496 20.4756 10.7704
1 7.1433 19.6819 10.7704
1 7.14575 20.4901 9.97564
1 6.35782 19.694 9.96165
1 7.93701 20.4756 10.7704
1 8.73071 19.6819 10.7704
1 8.73751 20.4965 9.99303
1 7.95339 19.6799 9.99568
1 9.52441 20.4756 10.7704
1 10.3181 19.6819 10.7704
1 10.3027 20.4948 9.96819
1 9.56761 19.6633 9.98204
1 11.1118 20.4756 10.7704
1 11.9055 19.6819 10.7704
1 11.8934 20.4825 9.99033
1 11.121 19.6913 9.97365
1 12.6992 20.4756 10.7704
1 13.4929 19.6819 10.7704
1 13.4678 20.4863 9.99913
1 12.7002 19.6851 9.98478
1 14.2866 20.4756 10.7704
1 15.0803 19.6819 10.7704
1 15.0886 20.4893 9.98145
1 14.2851 19.6979 9.99365
1 15.874 20.4756 10.7704
1 16.6677 19.6819 10.7704
1 16.665 20.4741 9.99782
1 15.8877 19.6752 9.95919
1 17.4614 20.4756 10.7704
1 18.2551 19.6819 10.7704
1 18.2481 20.4427 9.98233
1 17.457 19.6895 9.99369
1 19.0488 20.4756 10.7704
1 19.8425 19.6819 10.7704
1 19.8173 20.4886 9.96332
1 19.0311 19.6676 9.974
1 20.6362 20.4756 10.7704
1 21.4299 19.6819 10.7704
1 21.4184 20.4593 9.97785
1 20.6437 19.703 9.96156
1 22.2236 20.4756 10.7704
1 23.0173 19.6819 10.7704
1 23.0331 20.4759 9.99783
1 22.2211 19.662 9.97478
1 23.811 20.4756 10.7704
1 24.6047 19.6819 10.7704
1 24.6005 20.5179 9.98793
1 23.8041 19.7001 9.98552
1 25.3984 20.4756 10.7704
1 26.1921 19.6819 10.7704
1 26.1845 20.4854 9.96601
1 25.3846 19.7109 9.98837
1 26.9858 20.4756 10.7704
1 27.7795 19.6819 10.7704
1 27.7618 20.473 9.97484
1 26.9666 19.6852 9.98736
1 28.5732 20.4756 10.7704
1 29.3669 19.6819 10.7704
1 29.3199 20.4849 9.92621
1 28.5165 19.7089 9.97849
1 30 18.8882 10.7704
1 0.793701 18.0945 10.7704
1 0.828887 18.8826 9.9776
1 0.0767683 18.0944 9.9592
1 1.5874 18.8882 10.7704
1 2.3811 18.0945 10.7704
1 2.40389 18.8914 9.95108
1 1.5887 18.1344 9.95633
1 3.1748 18.8882 10.7704
1 3.9685 18.0945 10.7704
1 3.98906 18.8785 9.99022
1 3.18639 18.1141 9.95631
1 4.7622 18.8882 10.7704
1 5.5559 18.0945 10.7704
1 5.5766 18.8647 9.96529
1 4.78179 18.1081 10.0084
1 6.3496 18.8882 10.7704
1 7.1433 18.0945 10.7704
1 7.12104 18.901 9.97621
1 6.3522 18.0851 9.97772
1 7.93701 18.8882 10.7704
1 8.73071 18.0945 10.7704
1 8.74168 18.8998 9.97726
1 7.95003 18.0952 9.99516
1 9.52441 18.8882 10.7704
1 10.3181 18.0945 10.7704
1 10.3136 18.8829 9.96396
1 9.54593 18.0964 9.97619
1 11.1118 18.8882 10.7704
1 11.9055 18.0945 10.7704
1 11.9305 18.8914 9.95377
1 11.1418 18.1074 9.99434
1 12.6992 18.8882 10.7704
1 13.4929 18.0945 10.7704
1 13.4722 18.8774 9.99459
1 12.7148 18.0788 9.97952
1 14.2866 18.8882 10.7704
1 15.0803 18.0945 10.7704
1 15.0852 18.9206 9.98234
1 14.3238 18.0906 9.97459
1 15.874 18.8882 10.7704
1 16.6677 18.0945 10.7704
1 16.6687 18.9148 9.98772
1 15.8956 18.0868 9.98094
1 17.4614 18.8882 10.7704
1 18.2551 18.0945 10.7704
1 18.2302 18.8842 9.97504
1 17.4241 18.1117 9.98032
1 19.0488 18.8882 10.7704
1 19.8425 18.0945 10.7704
1 19.8603 18.9226 9.974
1 19.0418 18.1084 9.99021
1 20.6362 18.8882 10.7704
1 21.4299 18.0945 10.7704
1 21.4393 18.879 9.98796
1 20.6289 18.0962 9.96328
1 22.2236 18.8882 10.7704
1 23.0173 18.0945 10.7704
1 23.0324 18.8894 9.98639
1 22.2583 18.0895 9.9999
1 23.811 18.8882 10.7704
1 24.6047 18.0945 10.7704
1 24.6055 18.8834 9.9903
1 23.8225 18.0721 9.98742
1 25.3984 18.8882 10.7704
1 26.1921 18.0945 10.7704
1 26.1836 18.9215 9.94706
1 25.4054 18.0905 9.96238
1 26.9858 18.8882 10.7704
1 27.7795 18.0945 10.7704
1 27.7642 18.8832 9.97199
1 26.9726 18.1122 9.9901
1 28.5732 18.8882 10.7704
1 29.3669 18.0945 10.7704
1 29.2972 18.8836 9.95599
1 28.5433 18.085 9.99256
1 30 17.3008 10.7704
1 0.793701 16.5071 10.7704
1 0.839076 17.3256 9.99811
1 0.0649297 16.5077 9.95232
1 1.5874 17.3008 10.7704
1 2.3811 16.5071 10.7704
1 2.37704 17.3213 9.9887
1 1.62902 16.4941 9.97455
1 3.1748 17.3008 10.7704
1 3.9685 16.5071 10.7704
1 3.97658 17.3195 9.9645
1 3.17808 16.4974 9.97507
1 4.7622 17.3008 10.7704
1 5.5559 16.5071 10.7704
1 5.55188 17.3431 9.996
1 4.74915 16.5155 9.98124
1 6.3496 17.3008 10.7704
1 7.1433 16.5071 10.7704
1 7.12173 17.3201 9.9836
1 6.34236 16.5114 9.99087
1 7.93701 17.3008 10.7704
1 8.73071 16.5071 10.7704
1 8.72658 17.3097 9.98815
1 7.93811 16.4986 9.99077
1 9.52441 17.3008 10.7704
1 10.3181 16.5071 10.7704
1 10.307 17.3246 9.96982
1 9.51575 16.5253 9.98408
1 11.1118 17.3008 10.7704
1 11.9055 16.5071 10.7704
1 11.9101 17.3196 9.97119
1 11.1139 16.5402 10.0079
1 12.6992 17.3008 10.7704
1 13.4929 16.5071 10.7704
1 13.5042 17.2863 9.97499
1 12.7137 16.5093 9.96554
1 14.2866 17.3008 10.7704
1 15.0803 16.5071 10.7704
1 15.0852 17.3341 9.95946
1 14.2958 16.5027 9.99824
1 15.874 17.3008 10.7704
1 16.6677 16.5071 10.7704
1 16.668 17.2957 9.99116
1 15.8683 16.482 9.97544
1 17.4614 17.3008 10.7704
1 18.2551 16.5071 10.7704
1 18.2383 17.3047 9.99556
1 17.4479 16.4886 9.96529
1 19.0488 17.3008 10.7704
1 19.8425 16.5071 10.7704
1 19.8476 17.3019 9.97592
1 19.0699 16.4838 9.96403
1 20.6362 17.3008 10.7704
1 21.4299 16.5071 10.7704
1 21.4434 17.2954 10.0023
1 20.6515 16.4924 9.96897
1 22.2236 17.3008 10.7704
1 23.0173 16.5071 10.7704
1 23.0244 17.2853 9.99142
1 22.2391 16.4991 10.0024
1 23.811 17.3008 10.7704
1 24.6047 16.5071 10.7704
1 24.6113 17.3008 9.95548
1 23.7929 16.4893 9.9658
1 25.3984 17.3008 10.7704
1 26.1921 16.5071 10.7704
1 26.1927 17.2988 9.98122
1 25.4077 16.5007 9.96802
1 26.9858 17.3008 10.7704
1 27.7795 16.5071 10.7704
1 27.753 17.2595 9.97603
1 26.9668 16.5036 9.99645
1 28.5732 17.3008 10.7704
1 29.3669 16.5071 10.7704
1 29.3049 17.2875 9.95642
1 28.5313 16.5058 9.99208
1 30 15.7134 10.7704
1 0.793701 14.9197 10.7704
1 0.837597 15.7306 9.97453
1 0.0779083 14.912 9.95454
1 1.5874 15.7134 10.7704
1 2.3811 14.9197 10.7704
1 2.3953 15.7263 9.97391
1 1.61142 14.9334 9.97594
1 3.1748 15.7134 10.7704
1 3.9685 14.9197 10.7704
1 3.96379 15.7013 9.98401
1 3.18717 14.9452 9.99155
1 4.7622 15.7134 10.7704
1 5.5559 14.9197 10.7704
1 5.56088 15.7367 9.98953
1 4.79365 14.9238 9.97564
1 6.3496 15.7134 10.7704
1 7.1433 14.9197 10.7704
1 7.13861 15.7076 9.9602
1 6.34154 14.9281 9.96942
1 7.93701 15.7134 10.7704
1 8.73071 14.9197 10.7704
1 8.72768 15.7111 9.9489
1 7.92619 14.8883 9.99115
1 9.52441 15.7134 10.7704
1 10.3181 14.9197 10.7704
1 10.3105 15.7114 9.97216
1 9.53337 14.9164 9.98329
1 11.1118 15.7134 10.7704
1 11.9055 14.9197 10.7704
1 11.9039 15.7355 9.96931
1 11.1092 14.9301 9.99948
1 12.6992 15.7134 10.7704
1 13.4929 14.9197 10.7704
1 13.4871 15.7275 9.99953
1 12.7365 14.9366 9.99156
1 14.2866 15.7134 10.7704
1 15.0803 14.9197 10.7704
1 15.0795 15.7064 9.9949
1 14.2892 14.9001 9.97789
1 15.874 15.7134 10.7704
1 16.6677 14.9197 10.7704
1 16.663 15.7113 9.97397
1 15.9031 14.9233 9.97499
1 17.4614 15.7134 10.7704
1 18.2551 14.9197 10.7704
1 18.2627 15.7103 9.96907
1 17.4589 14.9231 9.98859
1 19.0488 15.7134 10.7704
1 19.8425 14.9197 10.7704
1 19.8535 15.6933 9.96616
1 19.0429 14.9115 9.99401
1 20.6362 15.7134 10.7704
1 21.4299 14.9197 10.7704
1 21.4158 15.7106 9.96963
1 20.6338 14.9014 9.96876
1 22.2236 15.7134 10.7704
1 23.0173 14.9197 10.7704
1 22.9931 15.7162 9.99901
1 22.2174 14.9466 9.96504
1 23.811 15.7134 10.7704
1 24.6047 14.9197 10.7704
1 24.5908 15.7148 9.98469
1 23.8094 14.9148 9.99018
1 25.3984 15.7134 10.7704
1 26.1921 14.9197 10.7704
1 26.1638 15.6971 10.0107
1 25.3959 14.9053 9.98468
1 26.9858 15.7134 10.7704
1 27.7795 14.9197 10.7704
1 27.7673 15.692 9.97736
1 26.9698 14.9202 9.96688
1 28.5732 15.7134 10.7704
1 29.3669 14.9197 10.7704
1 29.2847 15.6932 9.93928
1 28.5667 14.8981 10.0007
1 30 14.126 10.7704
1 0.793701 13.3323 10.7704
1 0.825379 14.1222 9.96364
1 0.0480376 13.3436 9.92779
1 1.5874 14.126 10.7704
1 2.3811 13.3323 10.7704
1 2.39443 14.1124 9.95708
1 1.60651 13.3374 9.95757
1 3.1748 14.126 10.7704
1 3.9685 13.3323 10.7704
1 3.96924 14.1263 9.94646
1 3.20008 13.3323 9.97703
1 4.7622 14.126 10.7704
1 5.5559 13.3323 10.7704
1 5.55246 14.1067 9.9813
1 4.75417 13.362 9.98691
1 6.3496 14.126 10.7704
1 7.1433 13.3323 10.7704
1 7.1458 14.1122 9.99651
1 6.34941 13.3368 9.98665
1 7.93701 14.126 10.7704
1 8.73071 13.3323 10.7704
1 8.75749 14.1449 9.96852
1 7.92123 13.3423 9.97116
1 9.52441 14.126 10.7704
1 10.3181 13.3323 10.7704
1 10.3242 14.1299 9.99431
1 9.49494 13.3365 9.96594
1 11.1118 14.126 10.7704
1 11.9055 13.3323 10.7704
1 11.9259 14.1344 9.99418
1 11.127 13.3402 9.97851
1 12.6992 14.126 10.7704
1 13.4929 13.3323 10.7704
1 13.5068 14.1294 9.97858
1 12.7212 13.3377 9.95897
1 14.2866 14.126 10.7704
1 15.0803 13.3323 10.7704
1 15.0561 14.1062 9.97074
1 14.2602 13.3137 9.96247
1 15.874 14.126 10.7704
1 16.6677 13.3323 10.7704
1 16.6636 14.1064 9.99407
1 15.87 13.3283 9.98573
1 17.4614 14.126 10.7704
1 18.2551 13.3323 10.7704
1 18.2626 14.139 10.0097
1 17.4686 13.3426 9.98055
1 19.0488 14.126 10.7704
1 19.8425 13.3323 10.7704
1 19.8565 14.1473 9.98116
1 19.0286 13.3502 9.95935
1 20.6362 14.126 10.7704
1 21.4299 13.3323 10.7704
1 21.4269 14.1165 9.99509
1 20.6323 13.3201 9.99497
1 22.2236 14.126 10.7704
1 23.0173 13.3323 10.7704
1 23.0172 14.1099 9.95825
1 22.2205 13.3451 9.98517
1 23.811 14.126 10.7704
1 24.6047 13.3323 10.7704
1 24.6019 14.1097 9.9816
1 23.8018 13.3388 9.96796
1 25.3984 14.126 10.7704
1 26.1921 13.3323 10.7704
1 26.2061 14.1185 9.9761
1 25.3939 13.3289 9.96928
1 26.9858 14.126 10.7704
1 27.7795 13.3323 10.7704
1 27.769 14.1192 9.97506
1 26.9844 13.3162 9.98225
1 28.5732 14.126 10.7704
1 29.3669 13.3323 10.7704
1 29.2846 14.1201 9.96553
1 28.5257 13.2994 9.94432
1 30 12.5386 10.7704
1 0.793701 11.7449 10.7704
1 0.825015 12.5386 9.98188
1 0.0578434 11.7519 9.95079
1 1.5874 12.5386 10.7704
1 2.3811 11.7449 10.7704
1 2.3907 12.5401 9.96621
1 1.60116 11.7329 10.0031
1 3.1748 12.5386 10.7704
1 3.9685 11.7449 10.7704
1 3.96545 12.5411 9.96842
1 3.19499 11.7306 9.97748
1 4.7622 12.5386 10.7704
1 5.5559 11.7449 10.7704
1 5.55657 12.5198 9.97015
1 4.77923 11.7573 9.96625
1 6.3496 12.5386 10.7704
1 7.1433 11.7449 10.7704
1 7.11144 12.5292 9.9681
1 6.36001 11.7301 9.97027
1 7.93701 12.5386 10.7704
1 8.73071 11.7449 10.7704
1 8.72946 12.5576 9.98064
1 7.94304 11.7553 9.98935
1 9.52441 12.5386 10.7704
1 10.3181 11.7449 10.7704
1 10.2987 12.5467 9.94659
1 9.48716 11.7577 9.96039
1 11.1118 12.5386 10.7704
1 11.9055 11.7449 10.7704
1 11.9219 12.5192 9.97856
1 11.1104 11.7708 9.9737
1 12.6992 12.5386 10.7704
1 13.4929 11.7449 10.7704
1 13.5171 12.5123 9.96877
1 12.676 11.7414 9.98571
1 14.2866 12.5386 10.7704
1 15.0803 11.7449 10.7704
1 15.0811 12.5733 9.97408
1 14.3097 11.7301 9.93517
1 15.874 12.5386 10.7704
1 16.6677 11.7449 10.7704
1 16.668 12.5341 9.98259
1 15.8836 11.7231 9.97793
1 17.4614 12.5386 10.7704
1 18.2551 11.7449 10.7704
1 18.2529 12.528 9.97792
1 17.4465 11.716 9.96399
1 19.0488 12.5386 10.7704
1 19.8425 11.7449 10.7704
1 19.857 12.5638 9.9564
1 19.051 11.7675 9.98451
1 20.6362 12.5386 10.7704
1 21.4299 11.7449 10.7704
1 21.4349 12.5444 9.96201
1 20.6441 11.7237 9.98933
1 22.2236 12.5386 10.7704
1 23.0173 11.7449 10.7704
1 23.0162 12.546 9.98562
1 22.226 11.7507 9.98688
1 23.811 12.5386 10.7704
1 24.6047 11.7449 10.7704
1 24.5806 12.5481 9.96984
1 23.8306 11.7389 9.97118
1 25.3984 12.5386 10.7704
1 26.1921 11.7449 10.7704
1 26.1879 12.5375 9.9961
1 25.405 11.7228 9.98127
1 26.9858 12.5386 10.7704
1 27.7795 11.7449 10.7704
1 27.7544 12.5146 9.98657
1 26.9546 11.7426 9.9679
1 28.5732 12.5386 10.7704
1 29.3669 11.7449 10.7704
1 29.3046 12.5267 9.95263
1 28.5736 11.7398 9.97371
1 30 10.9512 10.7704
1 0.793701 10.1575 10.7704
1 0.811104 10.9313 9.99853
1 0.0599144 10.1517 9.94672
1 1.5874 10.9512 10.7704
1 2.3811 10.1575 10.7704
1 2.40311 10.9545 9.97149
1 1.60696 10.1577 9.98271
1 3.1748 10.9512 10.7704
1 3.9685 10.1575 10.7704
1 4.01251 10.9559 9.97471
1 3.18364 10.17 9.99463
1 4.7622 10.9512 10.7704
1 5.5559 10.1575 10.7704
1 5.55615 10.9284 9.98099
1 4.76472 10.1507 9.95299
1 6.3496 10.9512 10.7704
1 7.1433 10.1575 10.7704
1 7.17733 10.9304 9.97536
1 6.38435 10.1578 9.96739
1 7.93701 10.9512 10.7704
1 8.73071 10.1575 10.7704
1 8.73371 10.9624 9.9938
1 7.93669 10.1345 9.99807
1 9.52441 10.9512 10.7704
1 10.3181 10.1575 10.7704
1 10.2951 10.9662 9.99862
1 9.53568 10.1499 9.96766
1 11.1118 10.9512 10.7704
1 11.9055 10.1575 10.7704
1 11.8955 10.9578 9.95007
1 11.1131 10.145 9.98984
1 12.6992 10.9512 10.7704
1 13.4929 10.1575 10.7704
1 13.4844 10.9365 9.97091
1 12.7191 10.1717 9.97627
1 14.2866 10.9512 10.7704
1 15.0803 10.1575 10.7704
1 15.077 10.9382 9.99103
1 14.3028 10.1537 9.96193
1 15.874 10.9512 10.7704
1 16.6677 10.1575 10.7704
1 16.671 10.9227 9.98401
1 15.8805 10.1423 9.96327
1 17.4614 10.9512 10.7704
1 18.2551 10.1575 10.7704
1 18.2585 10.9261 9.99274
1 17.4635 10.141 9.97593
1 19.0488 10.9512 10.7704
1 19.8425 10.1575 10.7704
1 19.8565 10.9584 9.9823
1 19.0743 10.1537 9.98761
1 20.6362 10.9512 10.7704
1 21.4299 10.1575 10.7704
1 21.4468 10.9478 9.95731
1 20.6361 10.1685 9.99171
1 22.2236 10.9512 10.7704
1 23.0173 10.1575 10.7704
1 23.0162 10.9453 9.97149
1 22.2374 10.1455 9.97053
1 23.811 10.9512 10.7704
1 24.6047 10.1575 10.7704
1 24.5993 10.9581 9.97664
1 23.7909 10.1577 9.98275
1 25.3984 10.9512 10.7704
1 26.1921 10.1575 10.7704
1 26.1786 10.9454 9.97121
1 25.3919 10.1605 9.97717
1 26.9858 10.9512 10.7704
1 27.7795 10.1575 10.7704
1 27.7499 10.9421 9.97066
1 26.9622 10.1328 9.97067
1 28.5732 10.9512 10.7704
1 29.3669 10.1575 10.7704
1 29.2988 10.9568 9.95831
1 28.5375 10.1419 9.96835
1 30 9.36379 10.7704
1 0.793701 8.57009 10.7704
1 0.804649 9.37612 9.96288
1 0.0608029 8.57825 9.94272
1 1.5874 9.36379 10.7704
1 2.3811 8.57009 10.7704
1 2.39338 9.36785 9.96627
1 1.58876 8.58442 9.97514
1 3.1748 9.36379 10.7704
1 3.9685 8.57009 10.7704
1 3.95522 9.3835 9.98298
1 3.1896 8.58512 9.98216
1 4.7622 9.36379 10.7704
1 5.5559 8.57009 10.7704
1 5.5519 9.3634 9.95168
1 4.75848 8.56031 9.96259
1 6.3496 9.36379 10.7704
1 7.1433 8.57009 10.7704
1 7.13839 9.34778 9.96146
1 6.35351 8.58016 9.95061
1 7.93701 9.36379 10.7704
1 8.73071 8.57009 10.7704
1 8.75786 9.36464 9.97348
1 7.93318 8.56141 9.97272
1 9.52441 9.36379 10.7704
1 10.3181 8.57009 10.7704
1 10.3031 9.37041 9.98991
1 9.5225 8.56683 9.97857
1 11.1118 9.36379 10.7704
1 11.9055 8.57009 10.7704
1 11.9214 9.3711 9.98236
1 11.114 8.57992 9.96578
1 12.6992 9.36379 10.7704
1 13.4929 8.57009 10.7704
1 13.5041 9.35042 9.96685
1 12.6799 8.54238 9.98444
1 14.2866 9.36379 10.7704
1 15.0803 8.57009 10.7704
1 15.0833 9.33208 9.9611
1 14.2547 8.55245 9.98901
1 15.874 9.36379 10.7704
1 16.6677 8.57009 10.7704
1 16.6576 9.36458 9.96654
1 15.878 8.55984 10.0029
1 17.4614 9.36379 10.7704
1 18.2551 8.57009 10.7704
1 18.2596 9.37382 9.98193
1 17.4766 8.5714 9.94709
1 19.0488 9.36379 10.7704
1 19.8425 8.57009 10.7704
1 19.8679 9.34657 9.9849
1 19.0581 8.59133 9.944
1 20.6362 9.36379 10.7704
1 21.4299 8.57009 10.7704
1 21.4271 9.35908 9.97635
1 20.6574 8.56175 9.96532
1 22.2236 9.36379 10.7704
1 23.0173 8.57009 10.7704
1 23.0113 9.3812 9.95899
1 22.2244 8.61052 9.94774
1 23.811 9.36379 10.7704
1 24.6047 8.57009 10.7704
1 24.6065 9.36441 9.97445
1 23.7914 8.58838 9.97292
1 25.3984 9.36379 10.7704
1 26.1921 8.57009 10.7704
1 26.1877 9.33654 9.96814
1 25.3909 8.57275 9.98231
1 26.9858 9.36379 10.7704
1 27.7795 8.57009 10.7704
1 27.7665 9.38597 9.96983
1 26.9867 8.5848 9.95233
1 28.5732 9.36379 10.7704
1 29.3669 8.57009 10.7704
1 29.2777 9.36455 9.94669
1 28.5235 8.56476 9.97245
1 30 7.77639 10.7704
1 0.793701 6.98268 10.7704
1 0.820465 7.7848 9.97088
1 0.0741278 6.9833 9.95274
1 1.5874 7.77639 10.7704
1 2.3811 6.98268 10.7704
1 2.39219 7.81203 9.9798
1 1.60366 6.97571 9.95759
1 3.1748 7.77639 10.7704
1 3.9685 6.98268 10.7704
1 3.96275 7.78173 9.98185
1 3.17999 6.98328 9.95355
1 4.7622 7.77639 10.7704
1 5.5559 6.98268 10.7704
1 5.55497 7.75106 9.95636
1 4.74749 6.96954 9.97014
1 6.3496 7.77639 10.7704
1 7.1433 6.98268 10.7704
1 7.12643 7.77346 9.97954
1 6.33911 6.97876 9.98011
1 7.93701 7.77639 10.7704
1 8.73071 6.98268 10.7704
1 8.73621 7.78923 9.96739
1 7.94864 6.97177 9.95941
1 9.52441 7.77639 10.7704
1 10.3181 6.98268 10.7704
1 10.3082 7.79699 9.95983
1 9.50201 6.99114 9.98102
1 11.1118 7.77639 10.7704
1 11.9055 6.98268 10.7704
1 11.894 7.78667 9.96828
1 11.0877 7.00259 9.98168
1 12.6992 7.77639 10.7704
1 13.4929 6.98268 10.7704
1 13.4854 7.78001 9.97092
1 12.6982 7.01173 9.95454
1 14.2866 7.77639 10.7704
1 15.0803 6.98268 10.7704
1 15.0396 7.774 10.0022
1 14.2581 6.98303 9.98325
1 15.874 7.77639 10.7704
1 16.6677 6.98268 10.7704
1 16.6528 7.77185 9.96706
1 15.8691 6.97412 9.95561
1 17.4614 7.77639 10.7704
1 18.2551 6.98268 10.7704
1 18.2845 7.79835 9.97023
1 17.4541 7.01565 9.97751
1 19.0488 7.77639 10.7704
1 19.8425 6.98268 10.7704
1 19.851 7.76992 9.98374
1 19.058 7.02077 9.96277
1 20.6362 7.77639 10.7704
1 21.4299 6.98268 10.7704
1 21.4574 7.78607 9.95
1 20.6546 7.01618 9.9927
1 22.2236 7.77639 10.7704
1 23.0173 6.98268 10.7704
1 22.9753 7.78717 9.96598
1 22.2023 6.99077 9.94986
1 23.811 7.77639 10.7704
1 24.6047 6.98268 10.7704
1 24.5849 7.77031 9.9715
1 23.7949 6.95814 9.96385
1 25.3984 7.77639 10.7704
1 26.1921 6.98268 10.7704
1 26.2059 7.76291 9.93179
1 25.3993 6.97703 9.96225
1 26.9858 7.77639 10.7704
1 27.7795 6.98268 10.7704
1 27.7695 7.78394 9.98265
1 26.9907 6.97887 9.95566
1 28.5732 7.77639 10.7704
1 29.3669 6.98268 10.7704
1 29.3022 7.78269 9.95338
1 28.5428 6.97577 9.96315
1 30 6.18898 10.7704
1 0.793701 5.39528 10.7704
1 0.864583 6.16455 9.93971
1 0.0475143 5.38799 9.93646
1 1.5874 6.18898 10.7704
1 2.3811 5.39528 10.7704
1 2.4058 6.19953 9.9597
1 1.58767 5.39095 9.99938
1 3.1748 6.18898 10.7704
1 3.9685 5.39528 10.7704
1 3.98458 6.19353 9.96206
1 3.19697 5.39854 9.97048
1 4.7622 6.18898 10.7704
1 5.5559 5.39528 10.7704
1 5.56056 6.20979 9.98489
1 4.78638 5.37776 9.99333
1 6.3496 6.18898 10.7704
1 7.1433 5.39528 10.7704
1 7.14628 6.16423 9.9613
1 6.31595 5.39878 9.98918
1 7.93701 6.18898 10.7704
1 8.73071 5.39528 10.7704
1 8.7476 6.19754 9.96377
1 7.9504 5.41036 9.99228