9376
Atoms. Timestep: 4000000
1 11.25 3.55271e-15 10.6214
1 12.0437 29.2063 10.6214
1 12.072 29.9221 9.7929
1 11.318 29.1777 9.79579
1 12.8374 3.55271e-15 10.6214
1 13.6311 29.2063 10.6214
1 13.6528 29.9455 9.79914
1 12.8618 29.1699 9.80655
1 14.4248 3.55271e-15 10.6214
1 15.2185 29.2063 10.6214
1 15.1998 29.9396 9.79572
1 14.4216 29.1871 9.84942
1 16.0122 3.55271e-15 10.6214
1 16.8059 29.2063 10.6214
1 16.8178 29.9448 9.7766
1 16.0026 29.2047 9.84058
1 17.5996 3.55271e-15 10.6214
1 18.3933 29.2063 10.6214
1 18.3748 29.923 9.79321
1 17.5987 29.1527 9.82311
1 19.187 3.55271e-15 10.6214
1 19.9807 29.2063 10.6214
1 19.9816 29.9405 9.80452
1 19.1879 29.1739 9.80686
1 20.7744 3.55271e-15 10.6214
1 21.5681 29.2063 10.6214
1 21.5536 29.9227 9.80363
1 20.749 29.1687 9.80901
1 22.3618 3.55271e-15 10.6214
1 23.1555 29.2063 10.6214
1 23.1595 29.9301 9.80041
1 22.3683 29.1995 9.84016
1 23.9492 3.55271e-15 10.6214
1 24.7429 29.2063 10.6214
1 24.7374 29.9264 9.81879
1 23.9403 29.1639 9.80139
1 25.5366 3.55271e-15 10.6214
1 26.3303 29.2063 10.6214
1 26.3413 29.9387 9.79854
1 25.5407 29.1889 9.84275
1 27.124 3.55271e-15 10.6214
1 27.9177 29.2063 10.6214
1 27.9289 29.9243 9.80547
1 27.124 29.1573 9.82392
1 28.7114 3.55271e-15 10.6214
1 29.5051 29.2063 10.6214
1 29.5238 29.9266 9.8136
1 28.6973 29.1615 9.83686
1 0.298813 3.55271e-15 10.6214
1 1.09251 29.2063 10.6214
1 1.09034 29.9351 9.79754
1 0.276844 29.1516 9.82746
1 1.88621 3.55271e-15 10.6214
1 2.67991 29.2063 10.6214
1 2.68076 29.933 9.80077
1 1.88329 29.2053 9.83685
1 3.47361 3.55271e-15 10.6214
1 4.26732 29.2063 10.6214
1 4.28787 29.9473 9.79002
1 3.47819 29.2 9.78426
1 5.06102 3.55271e-15 10.6214
1 5.85472 29.2063 10.6214
1 5.82804 29.9483 9.78834
1 5.04917 29.1579 9.83026
1 6.64842 3.55271e-15 10.6214
1 7.44212 29.2063 10.6214
1 7.42808 29.9221 9.77075
1 6.64647 29.1801 9.82825
1 8.23582 3.55271e-15 10.6214
1 9.02952 29.2063 10.6214
1 9.02811 29.904 9.79705
1 8.22799 29.1802 9.82852
1 9.82322 3.55271e-15 10.6214
1 10.6169 29.2063 10.6214
1 10.5525 29.9172 9.75605
1 9.80072 29.1685 9.83622
1 11.25 28.4126 10.6214
1 12.0437 27.6189 10.6214
1 12.073 28.3741 9.80097
1 11.2994 27.6046 9.78513
1 12.8374 28.4126 10.6214
1 13.6311 27.6189 10.6214
1 13.6404 28.3899 9.82336
1 12.8654 27.5799 9.84451
1 14.4248 28.4126 10.6214
1 15.2185 27.6189 10.6214
1 15.2223 28.4088 9.82915
1 14.4227 27.6188 9.83051
1 16.0122 28.4126 10.6214
1 16.8059 27.6189 10.6214
1 16.8136 28.3931 9.82482
1 16.0245 27.6002 9.84565
1 17.5996 28.4126 10.6214
1 18.3933 27.6189 10.6214
1 18.3959 28.3702 9.85692
1 17.5791 27.6103 9.81634
1 19.187 28.4126 10.6214
1 19.9807 27.6189 10.6214
1 19.9737 28.3795 9.84807
1 19.1868 27.6188 9.84115
1 20.7744 28.4126 10.6214
1 21.5681 27.6189 10.6214
1 21.5611 28.4095 9.83588
1 20.7656 27.6184 9.81969
1 22.3618 28.4126 10.6214
1 23.1555 27.6189 10.6214
1 23.1398 28.3844 9.82827
1 22.3357 27.5838 9.8084
1 23.9492 28.4126 10.6214
1 24.7429 27.6189 10.6214
1 24.7344 28.3936 9.82297
1 23.9692 27.6127 9.82942
1 25.5366 28.4126 10.6214
1 26.3303 27.6189 10.6214
1 26.2918 28.3908 9.82147
1 25.5048 27.6113 9.82296
1 27.124 28.4126 10.6214
1 27.9177 27.6189 10.6214
1 27.922 28.3765 9.84194
1 27.1275 27.6296 9.80983
1 28.7114 28.4126 10.6214
1 29.5051 27.6189 10.6214
1 29.4889 28.3826 9.8209
1 28.684 27.5853 9.85132
1 0.298813 28.4126 10.6214
1 1.09251 27.6189 10.6214
1 1.10322 28.4044 9.84931
1 0.303907 27.6086 9.80361
1 1.88621 28.4126 10.6214
1 2.67991 27.6189 10.6214
1 2.63564 28.4239 9.83055
1 1.89029 27.6389 9.83986
1 3.47361 28.4126 10.6214
1 4.26732 27.6189 10.6214
1 4.24429 28.3777 9.82631
1 3.46004 27.6331 9.85
1 5.06102 28.4126 10.6214
1 5.85472 27.6189 10.6214
1 5.84613 28.4026 9.81359
1 5.06124 27.6274 9.8517
1 6.64842 28.4126 10.6214
1 7.44212 27.6189 10.6214
1 7.4442 28.3881 9.82292
1 6.62492 27.634 9.80577
1 8.23582 28.4126 10.6214
1 9.02952 27.6189 10.6214
1 9.02149 28.3894 9.81053
1 8.25186 27.6058 9.82103
1 9.82322 28.4126 10.6214
1 10.6169 27.6189 10.6214
1 10.5798 28.4151 9.81395
1 9.80069 27.6114 9.81394
1 11.25 26.8252 10.6214
1 12.0437 26.0315 10.6214
1 12.0728 26.8114 9.82447
1 11.3166 26.0338 9.78931
1 12.8374 26.8252 10.6214
1 13.6311 26.0315 10.6214
1 13.6373 26.8253 9.8345
1 12.8457 26.0338 9.84435
1 14.4248 26.8252 10.6214
1 15.2185 26.0315 10.6214
1 15.2053 26.8431 9.83828
1 14.4217 26.0523 9.81963
1 16.0122 26.8252 10.6214
1 16.8059 26.0315 10.6214
1 16.8142 26.7923 9.84846
1 16.0093 26.0615 9.84209
1 17.5996 26.8252 10.6214
1 18.3933 26.0315 10.6214
1 18.3943 26.7988 9.86072
1 17.5986 26.0108 9.83014
1 19.187 26.8252 10.6214
1 19.9807 26.0315 10.6214
1 19.9644 26.8127 9.81372
1 19.1892 26.0417 9.83847
1 20.7744 26.8252 10.6214
1 21.5681 26.0315 10.6214
1 21.5621 26.8069 9.82965
1 20.7826 26.0276 9.82126
1 22.3618 26.8252 10.6214
1 23.1555 26.0315 10.6214
1 23.1475 26.8169 9.81483
1 22.3995 26.0524 9.80895
1 23.9492 26.8252 10.6214
1 24.7429 26.0315 10.6214
1 24.7222 26.809 9.81389
1 23.9387 26.0169 9.83214
1 25.5366 26.8252 10.6214
1 26.3303 26.0315 10.6214
1 26.3258 26.8447 9.8322
1 25.5503 26.0185 9.83873
1 27.124 26.8252 10.6214
1 27.9177 26.0315 10.6214
1 27.877 26.8269 9.81539
1 27.1255 26.0253 9.82195
1 28.7114 26.8252 10.6214
1 29.5051 26.0315 10.6214
1 29.4955 26.8081 9.84259
1 28.7014 26.0377 9.80728
1 0.298813 26.8252 10.6214
1 1.09251 26.0315 10.6214
1 1.09535 26.8083 9.8241
1 0.30307 26.0232 9.8497
1 1.88621 26.8252 10.6214
1 2.67991 26.0315 10.6214
1 2.66685 26.7885 9.80811
1 1.89946 26.0096 9.80745
1 3.47361 26.8252 10.6214
1 4.26732 26.0315 10.6214
1 4.24636 26.8227 9.83731
1 3.50035 26.0136 9.81726
1 5.06102 26.8252 10.6214
1 5.85472 26.0315 10.6214
1 5.83975 26.8311 9.80709
1 5.04167 26.0361 9.82839
1 6.64842 26.8252 10.6214
1 7.44212 26.0315 10.6214
1 7.43744 26.8326 9.8445
1 6.63038 26.0233 9.83173
1 8.23582 26.8252 10.6214
1 9.02952 26.0315 10.6214
1 9.01978 26.8154 9.84149
1 8.23364 26.0368 9.82058
1 9.82322 26.8252 10.6214
1 10.6169 26.0315 10.6214
1 10.5562 26.8313 9.78445
1 9.78742 26.0125 9.80839
1 11.25 25.2378 10.6214
1 12.0437 24.4441 10.6214
1 12.0867 25.2502 9.82135
1 11.3135 24.4489 9.79678
1 12.8374 25.2378 10.6214
1 13.6311 24.4441 10.6214
1 13.6418 25.2509 9.82949
1 12.8521 24.4571 9.81327
1 14.4248 25.2378 10.6214
1 15.2185 24.4441 10.6214
1 15.1974 25.2564 9.82703
1 14.4423 24.4573 9.82717
1 16.0122 25.2378 10.6214
1 16.8059 24.4441 10.6214
1 16.8153 25.2365 9.82806
1 16.0066 24.4328 9.83209
1 17.5996 25.2378 10.6214
1 18.3933 24.4441 10.6214
1 18.3989 25.2439 9.8082
1 17.588 24.4363 9.83342
1 19.187 25.2378 10.6214
1 19.9807 24.4441 10.6214
1 19.9578 25.1958 9.8361
1 19.1881 24.4392 9.83444
1 20.7744 25.2378 10.6214
1 21.5681 24.4441 10.6214
1 21.5699 25.2349 9.82816
1 20.7703 24.4606 9.83538
1 22.3618 25.2378 10.6214
1 23.1555 24.4441 10.6214
1 23.1618 25.2298 9.82654
1 22.3785 24.4552 9.86804
1 23.9492 25.2378 10.6214
1 24.7429 24.4441 10.6214
1 24.7303 25.2173 9.83494
1 23.9264 24.4449 9.81376
1 25.5366 25.2378 10.6214
1 26.3303 24.4441 10.6214
1 26.314 25.2394 9.82909
1 25.5151 24.4401 9.84018
1 27.124 25.2378 10.6214
1 27.9177 24.4441 10.6214
1 27.9046 25.2107 9.804
1 27.1173 24.4569 9.82025
1 28.7114 25.2378 10.6214
1 29.5051 24.4441 10.6214
1 29.4905 25.2111 9.8392
1 28.7078 24.4392 9.81033
1 0.298813 25.2378 10.6214
1 1.09251 24.4441 10.6214
1 1.08829 25.2368 9.82968
1 0.314186 24.4565 9.80975
1 1.88621 25.2378 10.6214
1 2.67991 24.4441 10.6214
1 2.70706 25.2234 9.82336
1 1.88162 24.4278 9.83168
1 3.47361 25.2378 10.6214
1 4.26732 24.4441 10.6214
1 4.26335 25.2192 9.8293
1 3.48042 24.4526 9.84165
1 5.06102 25.2378 10.6214
1 5.85472 24.4441 10.6214
1 5.83216 25.2406 9.82876
1 5.06531 24.4173 9.83357
1 6.64842 25.2378 10.6214
1 7.44212 24.4441 10.6214
1 7.4333 25.2437 9.81438
1 6.64569 24.449 9.8259
1 8.23582 25.2378 10.6214
1 9.02952 24.4441 10.6214
1 9.00305 25.23 9.81332
1 8.23183 24.4658 9.82846
1 9.82322 25.2378 10.6214
1 10.6169 24.4441 10.6214
1 10.5517 25.2437 9.78542
1 9.78858 24.4525 9.79003
1 11.25 23.6504 10.6214
1 12.0437 22.8567 10.6214
1 12.0542 23.637 9.81629
1 11.2962 22.855 9.77077
1 12.8374 23.6504 10.6214
1 13.6311 22.8567 10.6214
1 13.633 23.6405 9.83702
1 12.8397 22.8799 9.8185
1 14.4248 23.6504 10.6214
1 15.2185 22.8567 10.6214
1 15.2245 23.6527 9.83265
1 14.4646 22.8665 9.82203
1 16.0122 23.6504 10.6214
1 16.8059 22.8567 10.6214
1 16.8102 23.623 9.81799
1 16.0266 22.8648 9.83212
1 17.5996 23.6504 10.6214
1 18.3933 22.8567 10.6214
1 18.3964 23.6259 9.82437
1 17.6085 22.8638 9.85271
1 19.187 23.6504 10.6214
1 19.9807 22.8567 10.6214
1 19.9932 23.6297 9.82945
1 19.2056 22.8221 9.83395
1 20.7744 23.6504 10.6214
1 21.5681 22.8567 10.6214
1 21.5728 23.6302 9.83289
1 20.7632 22.8729 9.85147
1 22.3618 23.6504 10.6214
1 23.1555 22.8567 10.6214
1 23.1595 23.6391 9.83596
1 22.3713 22.8737 9.82581
1 23.9492 23.6504 10.6214
1 24.7429 22.8567 10.6214
1 24.7477 23.6515 9.8555
1 23.9443 22.8341 9.84831
1 25.5366 23.6504 10.6214
1 26.3303 22.8567 10.6214
1 26.3443 23.6491 9.82424
1 25.5451 22.8771 9.83071
1 27.124 23.6504 10.6214
1 27.9177 22.8567 10.6214
1 27.8855 23.6447 9.85339
1 27.1151 22.8614 9.8141
1 28.7114 23.6504 10.6214
1 29.5051 22.8567 10.6214
1 29.508 23.6516 9.86624
1 28.6962 22.894 9.83798
1 0.298813 23.6504 10.6214
1 1.09251 22.8567 10.6214
1 1.07468 23.6229 9.82651
1 0.292784 22.8674 9.82704
1 1.88621 23.6504 10.6214
1 2.67991 22.8567 10.6214
1 2.68513 23.6339 9.83546
1 1.86213 22.8457 9.82915
1 3.47361 23.6504 10.6214
1 4.26732 22.8567 10.6214
1 4.25774 23.6324 9.82954
1 3.47862 22.8251 9.80856
1 5.06102 23.6504 10.6214
1 5.85472 22.8567 10.6214
1 5.87776 23.6544 9.8236
1 5.07158 22.8649 9.81589
1 6.64842 23.6504 10.6214
1 7.44212 22.8567 10.6214
1 7.42175 23.6828 9.80804
1 6.66761 22.8811 9.85297
1 8.23582 23.6504 10.6214
1 9.02952 22.8567 10.6214
1 9.02164 23.66 9.84682
1 8.21665 22.8792 9.82814
1 9.82322 23.6504 10.6214
1 10.6169 22.8567 10.6214
1 10.549 23.6736 9.77032
1 9.79207 22.8589 9.81885
1 11.25 22.063 10.6214
1 12.0437 21.2693 10.6214
1 12.0669 22.0643 9.82732
1 11.3109 21.2874 9.78002
1 12.8374 22.063 10.6214
1 13.6311 21.2693 10.6214
1 13.6294 22.0497 9.81746
1 12.8642 21.2598 9.84283
1 14.4248 22.063 10.6214
1 15.2185 21.2693 10.6214
1 15.2469 22.0632 9.83925
1 14.4199 21.266 9.81308
1 16.0122 22.063 10.6214
1 16.8059 21.2693 10.6214
1 16.8227 22.0784 9.82016
1 16.0301 21.2502 9.81979
1 17.5996 22.063 10.6214
1 18.3933 21.2693 10.6214
1 18.4053 22.0627 9.84863
1 17.6015 21.2663 9.83107
1 19.187 22.063 10.6214
1 19.9807 21.2693 10.6214
1 19.9543 22.0481 9.82959
1 19.1889 21.2626 9.83325
1 20.7744 22.063 10.6214
1 21.5681 21.2693 10.6214
1 21.5853 22.0953 9.83332
1 20.7821 21.2953 9.85279
1 22.3618 22.063 10.6214
1 23.1555 21.2693 10.6214
1 23.1739 22.055 9.82324
1 22.3565 21.2753 9.83599
1 23.9492 22.063 10.6214
1 24.7429 21.2693 10.6214
1 24.769 22.0486 9.80884
1 23.9442 21.2862 9.80645
1 25.5366 22.063 10.6214
1 26.3303 21.2693 10.6214
1 26.3251 22.0484 9.82094
1 25.5215 21.2643 9.86418
1 27.124 22.063 10.6214
1 27.9177 21.2693 10.6214
1 27.9272 22.0629 9.78838
1 27.1245 21.263 9.80832
1 28.7114 22.063 10.6214
1 29.5051 21.2693 10.6214
1 29.5101 22.0752 9.81645
1 28.6929 21.2842 9.81846
1 0.298813 22.063 10.6214
1 1.09251 21.2693 10.6214
1 1.0637 22.0896 9.83678
1 0.275198 21.2582 9.81941
1 1.88621 22.063 10.6214
1 2.67991 21.2693 10.6214
1 2.67025 22.0548 9.84375
1 1.87618 21.2984 9.82179
1 3.47361 22.063 10.6214
1 4.26732 21.2693 10.6214
1 4.29035 22.0783 9.81671
1 3.47403 21.2962 9.83097
1 5.06102 22.063 10.6214
1 5.85472 21.2693 10.6214
1 5.87569 22.0483 9.8285
1 5.06062 21.2583 9.83452
1 6.64842 22.063 10.6214
1 7.44212 21.2693 10.6214
1 7.45247 22.0406 9.84598
1 6.63799 21.2392 9.80196
1 8.23582 22.063 10.6214
1 9.02952 21.2693 10.6214
1 9.01794 22.1017 9.83429
1 8.21738 21.2655 9.81243
1 9.82322 22.063 10.6214
1 10.6169 21.2693 10.6214
1 10.5699 22.0484 9.79722
1 9.77 21.27 9.82201
1 11.25 20.4756 10.6214
1 12.0437 19.6819 10.6214
1 12.0647 20.4707 9.81411
1 11.3011 19.6937 9.79185
1 12.8374 20.4756 10.6214
1 13.6311 19.6819 10.6214
1 13.6485 20.497 9.84024
1 12.85 19.6927 9.8342
1 14.4248 20.4756 10.6214
1 15.2185 19.6819 10.6214
1 15.2317 20.4923 9.84335
1 14.4255 19.7036 9.82657
1 16.0122 20.4756 10.6214
1 16.8059 19.6819 10.6214
1 16.8326 20.4718 9.81882
1 16.0288 19.6811 9.83673
1 17.5996 20.4756 10.6214
1 18.3933 19.6819 10.6214
1 18.4063 20.4744 9.83722
1 17.604 19.6692 9.83356
1 19.187 20.4756 10.6214
1 19.9807 19.6819 10.6214
1 19.9836 20.4787 9.83621
1 19.2153 19.6815 9.82983
1 20.7744 20.4756 10.6214
1 21.5681 19.6819 10.6214
1 21.5733 20.4576 9.83165
1 20.7722 19.6774 9.82588
1 22.3618 20.4756 10.6214
1 23.1555 19.6819 10.6214
1 23.1763 20.4763 9.81397
1 22.3642 19.692 9.82809
1 23.9492 20.4756 10.6214
1 24.7429 19.6819 10.6214
1 24.756 20.4747 9.85347
1 23.9633 19.6768 9.86059
1 25.5366 20.4756 10.6214
1 26.3303 19.6819 10.6214
1 26.3344 20.4636 9.83979
1 25.549 19.6789 9.80916
1 27.124 20.4756 10.6214
1 27.9177 19.6819 10.6214
1 27.9082 20.4562 9.80699
1 27.1023 19.6793 9.82792
1 28.7114 20.4756 10.6214
1 29.5051 19.6819 10.6214
1 29.4693 20.4739 9.81765
1 28.7234 19.6753 9.8181
1 0.298813 20.4756 10.6214
1 1.09251 19.6819 10.6214
1 1.10349 20.4892 9.83463
1 0.287555 19.6819 9.84472
1 1.88621 20.4756 10.6214
1 2.67991 19.6819 10.6214
1 2.68128 20.4825 9.82252
1 1.91051 19.6728 9.8211
1 3.47361 20.4756 10.6214
1 4.26732 19.6819 10.6214
1 4.25804 20.4721 9.85161
1 3.47038 19.6667 9.82402
1 5.06102 20.4756 10.6214
1 5.85472 19.6819 10.6214
1 5.82917 20.4805 9.82896
1 5.08167 19.6923 9.83458
1 6.64842 20.4756 10.6214
1 7.44212 19.6819 10.6214
1 7.43808 20.4614 9.84472
1 6.62471 19.6889 9.81258
1 8.23582 20.4756 10.6214
1 9.02952 19.6819 10.6214
1 9.0024 20.4847 9.83672
1 8.24762 19.6947 9.82756
1 9.82322 20.4756 10.6214
1 10.6169 19.6819 10.6214
1 10.5518 20.4811 9.79457
1 9.78471 19.7223 9.82038
1 11.25 18.8882 10.6214
1 12.0437 18.0945 10.6214
1 12.0774 18.8957 9.8312
1 11.3297 18.1156 9.80721
1 12.8374 18.8882 10.6214
1 13.6311 18.0945 10.6214
1 13.6419 18.8878 9.82708
1 12.8495 18.0874 9.84231
1 14.4248 18.8882 10.6214
1 15.2185 18.0945 10.6214
1 15.2285 18.8921 9.83418
1 14.4451 18.0869 9.84139
1 16.0122 18.8882 10.6214
1 16.8059 18.0945 10.6214
1 16.8117 18.8625 9.83012
1 16.0043 18.0866 9.83428
1 17.5996 18.8882 10.6214
1 18.3933 18.0945 10.6214
1 18.3763 18.8909 9.82316
1 17.6175 18.0789 9.81276
1 19.187 18.8882 10.6214
1 19.9807 18.0945 10.6214
1 19.9741 18.8728 9.81975
1 19.2162 18.0971 9.80943
1 20.7744 18.8882 10.6214
1 21.5681 18.0945 10.6214
1 21.5542 18.8846 9.83865
1 20.7621 18.0865 9.83688
1 22.3618 18.8882 10.6214
1 23.1555 18.0945 10.6214
1 23.144 18.9033 9.85734
1 22.3732 18.113 9.82748
1 23.9492 18.8882 10.6214
1 24.7429 18.0945 10.6214
1 24.7583 18.8969 9.80329
1 23.9577 18.1001 9.8046
1 25.5366 18.8882 10.6214
1 26.3303 18.0945 10.6214
1 26.3428 18.8751 9.84926
1 25.5321 18.1133 9.81844
1 27.124 18.8882 10.6214
1 27.9177 18.0945 10.6214
1 27.913 18.8917 9.81294
1 27.1326 18.0869 9.81764
1 28.7114 18.8882 10.6214
1 29.5051 18.0945 10.6214
1 29.5155 18.876 9.8303
1 28.7136 18.0772 9.81928
1 0.298813 18.8882 10.6214
1 1.09251 18.0945 10.6214
1 1.10077 18.8962 9.84058
1 0.293597 18.1042 9.80358
1 1.88621 18.8882 10.6214
1 2.67991 18.0945 10.6214
1 2.6845 18.8772 9.82168
1 1.88816 18.0615 9.81525
1 3.47361 18.8882 10.6214
1 4.26732 18.0945 10.6214
1 4.29894 18.9022 9.83272
1 3.45021 18.1215 9.83294
1 5.06102 18.8882 10.6214
1 5.85472 18.0945 10.6214
1 5.8501 18.8755 9.81457
1 5.08874 18.0743 9.83399
1 6.64842 18.8882 10.6214
1 7.44212 18.0945 10.6214
1 7.46315 18.8968 9.82299
1 6.66404 18.134 9.81993
1 8.23582 18.8882 10.6214
1 9.02952 18.0945 10.6214
1 9.04073 18.8974 9.82726
1 8.22073 18.1112 9.83038
1 9.82322 18.8882 10.6214
1 10.6169 18.0945 10.6214
1 10.5625 18.8988 9.80469
1 9.79403 18.0934 9.84641
1 11.25 17.3008 10.6214
1 12.0437 16.5071 10.6214
1 12.0741 17.2886 9.80751
1 11.301 16.503 9.81106
1 12.8374 17.3008 10.6214
1 13.6311 16.5071 10.6214
1 13.6499 17.2595 9.83083
1 12.8628 16.4841 9.82394
1 14.4248 17.3008 10.6214
1 15.2185 16.5071 10.6214
1 15.2495 17.3 9.84278
1 14.4479 16.504 9.818
1 16.0122 17.3008 10.6214
1 16.8059 16.5071 10.6214
1 16.7855 17.2997 9.83386
1 16.0107 16.5157 9.82333
1 17.5996 17.3008 10.6214
1 18.3933 16.5071 10.6214
1 18.4018 17.2906 9.85363
1 17.5863 16.5202 9.81203
1 19.187 17.3008 10.6214
1 19.9807 16.5071 10.6214
1 19.9677 17.3016 9.83926
1 19.1787 16.4716 9.8165
1 20.7744 17.3008 10.6214
1 21.5681 16.5071 10.6214
1 21.5779 17.2962 9.83307
1 20.8046 16.5078 9.84725
1 22.3618 17.3008 10.6214
1 23.1555 16.5071 10.6214
1 23.1813 17.2991 9.82175
1 22.3529 16.5106 9.85966
1 23.9492 17.3008 10.6214
1 24.7429 16.5071 10.6214
1 24.7653 17.3119 9.85511
1 23.974 16.5121 9.82529
1 25.5366 17.3008 10.6214
1 26.3303 16.5071 10.6214
1 26.3322 17.3232 9.80254
1 25.5264 16.5058 9.79367
1 27.124 17.3008 10.6214
1 27.9177 16.5071 10.6214
1 27.9101 17.2906 9.83179
1 27.1077 16.5253 9.82706
1 28.7114 17.3008 10.6214
1 29.5051 16.5071 10.6214
1 29.5035 17.3163 9.81165
1 28.7131 16.4867 9.80403
1 0.298813 17.3008 10.6214
1 1.09251 16.5071 10.6214
1 1.06862 17.276 9.82942
1 0.281585 16.4842 9.82251
1 1.88621 17.3008 10.6214
1 2.67991 16.5071 10.6214
1 2.693 17.3125 9.84198
1 1.89549 16.5142 9.82833
1 3.47361 17.3008 10.6214
1 4.26732 16.5071 10.6214
1 4.29783 17.3083 9.84771
1 3.48233 16.5203 9.82652
1 5.06102 17.3008 10.6214
1 5.85472 16.5071 10.6214
1 5.86471 17.3076 9.85251
1 5.06789 16.4937 9.84302
1 6.64842 17.3008 10.6214
1 7.44212 16.5071 10.6214
1 7.45118 17.3 9.84002
1 6.67928 16.5179 9.82211
1 8.23582 17.3008 10.6214
1 9.02952 16.5071 10.6214
1 9.01429 17.2888 9.84789
1 8.25034 16.5184 9.81809
1 9.82322 17.3008 10.6214
1 10.6169 16.5071 10.6214
1 10.5213 17.3058 9.78975
1 9.77854 16.4936 9.83784
1 11.25 15.7134 10.6214
1 12.0437 14.9197 10.6214
1 12.0761 15.6955 9.81263
1 11.3207 14.9246 9.80466
1 12.8374 15.7134 10.6214
1 13.6311 14.9197 10.6214
1 13.6582 15.7004 9.82794
1 12.8557 14.9184 9.82859
1 14.4248 15.7134 10.6214
1 15.2185 14.9197 10.6214
1 15.2368 15.7135 9.83144
1 14.4629 14.9175 9.83373
1 16.0122 15.7134 10.6214
1 16.8059 14.9197 10.6214
1 16.8246 15.6972 9.82262
1 16.0305 14.9391 9.84113
1 17.5996 15.7134 10.6214
1 18.3933 14.9197 10.6214
1 18.3585 15.7187 9.80587
1 17.5987 14.9508 9.83408
1 19.187 15.7134 10.6214
1 19.9807 14.9197 10.6214
1 19.9716 15.7129 9.83748
1 19.1532 14.9277 9.83715
1 20.7744 15.7134 10.6214
1 21.5681 14.9197 10.6214
1 21.5739 15.7107 9.84413
1 20.772 14.9247 9.84359
1 22.3618 15.7134 10.6214
1 23.1555 14.9197 10.6214
1 23.1803 15.7239 9.84935
1 22.3792 14.9169 9.84498
1 23.9492 15.7134 10.6214
1 24.7429 14.9197 10.6214
1 24.7445 15.7264 9.81127
1 23.9465 14.9284 9.82738
1 25.5366 15.7134 10.6214
1 26.3303 14.9197 10.6214
1 26.3294 15.7228 9.82489
1 25.5232 14.8981 9.84215
1 27.124 15.7134 10.6214
1 27.9177 14.9197 10.6214
1 27.9134 15.7106 9.83364
1 27.1348 14.9258 9.84548
1 28.7114 15.7134 10.6214
1 29.5051 14.9197 10.6214
1 29.5035 15.7149 9.83414
1 28.7041 14.9298 9.84024
1 0.298813 15.7134 10.6214
1 1.09251 14.9197 10.6214
1 1.08542 15.6932 9.82419
1 0.285072 14.88 9.83764
1 1.88621 15.7134 10.6214
1 2.67991 14.9197 10.6214
1 2.66952 15.7165 9.84493
1 1.88508 14.8971 9.83074
1 3.47361 15.7134 10.6214
1 4.26732 14.9197 10.6214
1 4.29142 15.7381 9.84118
1 3.49253 14.9513 9.83478
1 5.06102 15.7134 10.6214
1 5.85472 14.9197 10.6214
1 5.87379 15.7178 9.8306
1 5.06544 14.9281 9.8416
1 6.64842 15.7134 10.6214
1 7.44212 14.9197 10.6214
1 7.44618 15.7296 9.82104
1 6.66843 14.928 9.83565
1 8.23582 15.7134 10.6214
1 9.02952 14.9197 10.6214
1 9.00933 15.6952 9.82627
1 8.22333 14.9252 9.84395
1 9.82322 15.7134 10.6214
1 10.6169 14.9197 10.6214
1 10.5579 15.7075 9.80348
1 9.78422 14.8846 9.81167
1 11.25 14.126 10.6214
1 12.0437 13.3323 10.6214
1 12.073 14.1216 9.81195
1 11.3127 13.3477 9.78699
1 12.8374 14.126 10.6214
1 13.6311 13.3323 10.6214
1 13.6307 14.1428 9.81507
1 12.8552 13.323 9.81565
1 14.4248 14.126 10.6214
1 15.2185 13.3323 10.6214
1 15.2483 14.1195 9.82656
1 14.423 13.3213 9.82694
1 16.0122 14.126 10.6214
1 16.8059 13.3323 10.6214
1 16.8106 14.1594 9.82676
1 16.0146 13.3288 9.82752
1 17.5996 14.126 10.6214
1 18.3933 13.3323 10.6214
1 18.3798 14.1342 9.81991
1 17.5954 13.3345 9.82259
1 19.187 14.126 10.6214
1 19.9807 13.3323 10.6214
1 19.9718 14.1219 9.84877
1 19.1771 13.3609 9.8239
1 20.7744 14.126 10.6214
1 21.5681 13.3323 10.6214
1 21.5868 14.1321 9.82403
1 20.7824 13.336 9.81317
1 22.3618 14.126 10.6214
1 23.1555 13.3323 10.6214
1 23.1529 14.1165 9.81338
1 22.3387 13.3427 9.82811
1 23.9492 14.126 10.6214
1 24.7429 13.3323 10.6214
1 24.749 14.0979 9.83126
1 23.9484 13.3295 9.84491
1 25.5366 14.126 10.6214
1 26.3303 13.3323 10.6214
1 26.3209 14.1316 9.83682
1 25.5298 13.3406 9.84065
1 27.124 14.126 10.6214
1 27.9177 13.3323 10.6214
1 27.9149 14.121 9.80723
1 27.1029 13.3471 9.8062
1 28.7114 14.126 10.6214
1 29.5051 13.3323 10.6214
1 29.4795 14.1285 9.81206
1 28.6989 13.3499 9.80918
1 0.298813 14.126 10.6214
1 1.09251 13.3323 10.6214
1 1.11492 14.1321 9.80388
1 0.310491 13.3494 9.80769
1 1.88621 14.126 10.6214
1 2.67991 13.3323 10.6214
1 2.69238 14.1381 9.82356
1 1.88619 13.3511 9.83581
1 3.47361 14.126 10.6214
1 4.26732 13.3323 10.6214
1 4.27001 14.1436 9.82431
1 3.49591 13.3487 9.82242
1 5.06102 14.126 10.6214
1 5.85472 13.3323 10.6214
1 5.8497 14.1316 9.85165
1 5.07639 13.3475 9.8426
1 6.64842 14.126 10.6214
1 7.44212 13.3323 10.6214
1 7.44119 14.1326 9.83382
1 6.66844 13.3282 9.85399
1 8.23582 14.126 10.6214
1 9.02952 13.3323 10.6214
1 9.01991 14.1364 9.84558
1 8.23345 13.3543 9.83358
1 9.82322 14.126 10.6214
1 10.6169 13.3323 10.6214
1 10.5426 14.1369 9.80454
1 9.78554 13.3498 9.80712
1 11.25 12.5386 10.6214
1 12.0437 11.7449 10.6214
1 12.0835 12.5366 9.81088
1 11.3068 11.7393 9.80169
1 12.8374 12.5386 10.6214
1 13.6311 11.7449 10.6214
1 13.6441 12.5257 9.83681
1 12.8637 11.7486 9.85554
1 14.4248 12.5386 10.6214
1 15.2185 11.7449 10.6214
1 15.2361 12.5452 9.83072
1 14.4564 11.7437 9.83917
1 16.0122 12.5386 10.6214
1 16.8059 11.7449 10.6214
1 16.8049 12.5576 9.85112
1 16.0455 11.7389 9.83914
1 17.5996 12.5386 10.6214
1 18.3933 11.7449 10.6214
1 18.3952 12.5617 9.81607
1 17.6068 11.7495 9.85616
1 19.187 12.5386 10.6214
1 19.9807 11.7449 10.6214
1 19.9951 12.548 9.83128
1 19.1959 11.7362 9.83243
1 20.7744 12.5386 10.6214
1 21.5681 11.7449 10.6214
1 21.5771 12.5423 9.82993
1 20.8151 11.7501 9.82025
1 22.3618 12.5386 10.6214
1 23.1555 11.7449 10.6214
1 23.1438 12.5384 9.83645
1 22.3769 11.741 9.83997
1 23.9492 12.5386 10.6214
1 24.7429 11.7449 10.6214
1 24.7441 12.5481 9.84805
1 23.9296 11.7335 9.83118
1 25.5366 12.5386 10.6214
1 26.3303 11.7449 10.6214
1 26.3231 12.5501 9.83365
1 25.5113 11.7263 9.82727
1 27.124 12.5386 10.6214
1 27.9177 11.7449 10.6214
1 27.9069 12.5417 9.81239
1 27.119 11.7406 9.8356
1 28.7114 12.5386 10.6214
1 29.5051 11.7449 10.6214
1 29.5308 12.5204 9.83267
1 28.7312 11.7505 9.82701
1 0.298813 12.5386 10.6214
1 1.09251 11.7449 10.6214
1 1.09258 12.573 9.8133
1 0.292452 11.7357 9.80509
1 1.88621 12.5386 10.6214
1 2.67991 11.7449 10.6214
1 2.68713 12.5492 9.84271
1 1.88434 11.7381 9.83308
1 3.47361 12.5386 10.6214
1 4.26732 11.7449 10.6214
1 4.25662 12.5444 9.82244
1 3.47562 11.719 9.83777
1 5.06102 12.5386 10.6214
1 5.85472 11.7449 10.6214
1 5.8421 12.5425 9.81561
1 5.06214 11.7534 9.8373
1 6.64842 12.5386 10.6214
1 7.44212 11.7449 10.6214
1 7.4461 12.5412 9.82754
1 6.63136 11.7512 9.83477
1 8.23582 12.5386 10.6214
1 9.02952 11.7449 10.6214
1 9.00156 12.5579 9.81552
1 8.19609 11.763 9.85133
1 9.82322 12.5386 10.6214
1 10.6169 11.7449 10.6214
1 10.5739 12.5439 9.80179
1 9.79065 11.7642 9.82426
1 11.25 10.9512 10.6214
1 12.0437 10.1575 10.6214
1 12.0813 10.9568 9.83048
1 11.3218 10.1636 9.77587
1 12.8374 10.9512 10.6214
1 13.6311 10.1575 10.6214
1 13.6525 10.9273 9.83656
1 12.8636 10.121 9.81386
1 14.4248 10.9512 10.6214
1 15.2185 10.1575 10.6214
1 15.2399 10.9427 9.81327
1 14.4539 10.1545 9.83677
1 16.0122 10.9512 10.6214
1 16.8059 10.1575 10.6214
1 16.8362 10.9448 9.82526
1 15.9959 10.1619 9.82601
1 17.5996 10.9512 10.6214
1 18.3933 10.1575 10.6214
1 18.4259 10.9335 9.83844
1 17.5968 10.1268 9.8525
1 19.187 10.9512 10.6214
1 19.9807 10.1575 10.6214
1 19.9844 10.9528 9.83328
1 19.2064 10.1512 9.81072
1 20.7744 10.9512 10.6214
1 21.5681 10.1575 10.6214
1 21.5593 10.9482 9.81849
1 20.7519 10.1545 9.82035
1 22.3618 10.9512 10.6214
1 23.1555 10.1575 10.6214
1 23.1511 10.9485 9.8157
1 22.3488 10.1503 9.80526
1 23.9492 10.9512 10.6214
1 24.7429 10.1575 10.6214
1 24.7287 10.909 9.85244
1 23.9353 10.1369 9.82184
1 25.5366 10.9512 10.6214
1 26.3303 10.1575 10.6214
1 26.321 10.9389 9.81204
1 25.5311 10.1562 9.81538
1 27.124 10.9512 10.6214
1 27.9177 10.1575 10.6214
1 27.9303 10.955 9.83127
1 27.1367 10.1657 9.83956
1 28.7114 10.9512 10.6214
1 29.5051 10.1575 10.6214
1 29.5008 10.959 9.8343
1 28.7247 10.1743 9.82391
1 0.298813 10.9512 10.6214
1 1.09251 10.1575 10.6214
1 1.1039 10.947 9.81757
1 0.299173 10.1778 9.85604
1 1.88621 10.9512 10.6214
1 2.67991 10.1575 10.6214
1 2.66637 10.944 9.83661
1 1.88526 10.1666 9.80256
1 3.47361 10.9512 10.6214
1 4.26732 10.1575 10.6214
1 4.26607 10.9224 9.83288
1 3.46741 10.1749 9.80215
1 5.06102 10.9512 10.6214
1 5.85472 10.1575 10.6214
1 5.85757 10.9666 9.81443
1 5.05888 10.1508 9.82258
1 6.64842 10.9512 10.6214
1 7.44212 10.1575 10.6214
1 7.44383 10.9191 9.8572
1 6.64645 10.1417 9.81042
1 8.23582 10.9512 10.6214
1 9.02952 10.1575 10.6214
1 9.01858 10.9482 9.82549
1 8.23611 10.1414 9.83756
1 9.82322 10.9512 10.6214
1 10.6169 10.1575 10.6214
1 10.5413 10.9471 9.79852
1 9.81001 10.1664 9.80423
1 11.25 9.36379 10.6214
1 12.0437 8.57009 10.6214
1 12.0603 9.36751 9.80491
1 11.3248 8.56449 9.795
1 12.8374 9.36379 10.6214
1 13.6311 8.57009 10.6214
1 13.6578 9.36756 9.83074
1 12.8456 8.58767 9.80892
1 14.4248 9.36379 10.6214
1 15.2185 8.57009 10.6214
1 15.2365 9.38014 9.84073
1 14.4341 8.5796 9.83835
1 16.0122 9.36379 10.6214
1 16.8059 8.57009 10.6214
1 16.8004 9.35185 9.82768
1 16.0188 8.56717 9.8318
1 17.5996 9.36379 10.6214
1 18.3933 8.57009 10.6214
1 18.3906 9.3821 9.83915
1 17.5964 8.55942 9.80931
1 19.187 9.36379 10.6214
1 19.9807 8.57009 10.6214
1 19.9842 9.37428 9.81499
1 19.1612 8.54586 9.83512
1 20.7744 9.36379 10.6214
1 21.5681 8.57009 10.6214
1 21.5708 9.35015 9.8039
1 20.7836 8.56864 9.84135
1 22.3618 9.36379 10.6214
1 23.1555 8.57009 10.6214
1 23.1736 9.3542 9.81354
1 22.3841 8.55879 9.81855
1 23.9492 9.36379 10.6214
1 24.7429 8.57009 10.6214
1 24.7585 9.34514 9.86136
1 23.948 8.5667 9.82413
1 25.5366 9.36379 10.6214
1 26.3303 8.57009 10.6214
1 26.3452 9.37447 9.8405
1 25.5518 8.55014 9.83859
1 27.124 9.36379 10.6214
1 27.9177 8.57009 10.6214
1 27.9361 9.36583 9.83051
1 27.1487 8.5577 9.83967
1 28.7114 9.36379 10.6214
1 29.5051 8.57009 10.6214
1 29.5048 9.36385 9.83674
1 28.6979 8.55285 9.83826
1 0.298813 9.36379 10.6214
1 1.09251 8.57009 10.6214
1 1.10276 9.37588 9.84801
1 0.282618 8.58882 9.8241
1 1.88621 9.36379 10.6214
1 2.67991 8.57009 10.6214
1 2.67402 9.38702 9.82883
1 1.90181 8.58312 9.80119
1 3.47361 9.36379 10.6214
1 4.26732 8.57009 10.6214
1 4.27076 9.36066 9.83789
1 3.46164 8.58755 9.81606
1 5.06102 9.36379 10.6214
1 5.85472 8.57009 10.6214
1 5.85763 9.36521 9.83018
1 5.06574 8.56319 9.83175
1 6.64842 9.36379 10.6214
1 7.44212 8.57009 10.6214
1 7.45303 9.36275 9.83145
1 6.64342 8.57709 9.85247
1 8.23582 9.36379 10.6214
1 9.02952 8.57009 10.6214
1 9.00003 9.35276 9.82975
1 8.23331 8.5924 9.82308
1 9.82322 9.36379 10.6214
1 10.6169 8.57009 10.6214
1 10.5549 9.32962 9.77897
1 9.78371 8.55388 9.83082
1 11.25 7.77639 10.6214
1 12.0437 6.98268 10.6214
1 12.0674 7.74608 9.80999
1 11.312 6.98929 9.81756
1 12.8374 7.77639 10.6214
1 13.6311 6.98268 10.6214
1 13.627 7.78534 9.83059
1 12.8632 6.98825 9.83904
1 14.4248 7.77639 10.6214
1 15.2185 6.98268 10.6214
1 15.2303 7.79812 9.81106
1 14.4305 6.98477 9.82933
1 16.0122 7.77639 10.6214
1 16.8059 6.98268 10.6214
1 16.801 7.77415 9.82129
1 15.9937 6.96068 9.83836
1 17.5996 7.77639 10.6214
1 18.3933 6.98268 10.6214
1 18.3816 7.76849 9.83951
1 17.5953 6.98716 9.84803
1 19.187 7.77639 10.6214
1 19.9807 6.98268 10.6214
1 19.9582 7.8041 9.81769
1 19.17 6.96636 9.81495
1 20.7744 7.77639 10.6214
1 21.5681 6.98268 10.6214
1 21.5724 7.78283 9.82809
1 20.7851 6.98923 9.82999
1 22.3618 7.77639 10.6214
1 23.1555 6.98268 10.6214
1 23.1723 7.7703 9.80967
1 22.3859 6.9968 9.84245
1 23.9492 7.77639 10.6214
1 24.7429 6.98268 10.6214
1 24.7222 7.79696 9.84266
1 23.9564 6.96514 9.80526
1 25.5366 7.77639 10.6214
1 26.3303 6.98268 10.6214
1 26.3249 7.77141 9.82588
1 25.5304 6.9775 9.82567
1 27.124 7.77639 10.6214
1 27.9177 6.98268 10.6214
1 27.9049 7.79122 9.8106
1 27.1403 7.0065 9.83766
1 28.7114 7.77639 10.6214
1 29.5051 6.98268 10.6214
1 29.48 7.77185 9.82974
1 28.721 6.97973 9.81259
1 0.298813 7.77639 10.6214
1 1.09251 6.98268 10.6214
1 1.09686 7.79391 9.82574
1 0.295792 6.99196 9.81846
1 1.88621 7.77639 10.6214
1 2.67991 6.98268 10.6214
1 2.67417 7.78202 9.83415
1 1.87351 6.98528 9.84755
1 3.47361 7.77639 10.6214
1 4.26732 6.98268 10.6214
1 4.26155 7.78436 9.82089
1 3.47992 7.00774 9.8219
1 5.06102 7.77639 10.6214
1 5.85472 6.98268 10.6214
1 5.84644 7.77437 9.82247
1 5.05333 6.99556 9.82569
1 6.64842 7.77639 10.6214
1 7.44212 6.98268 10.6214
1 7.45744 7.78791 9.84924
1 6.64932 7.00592 9.82674
1 8.23582 7.77639 10.6214
1 9.02952 6.98268 10.6214
1 8.992 7.78803 9.79133
1 8.21242 6.97565 9.81611
1 9.82322 7.77639 10.6214
1 10.6169 6.98268 10.6214
1 10.5346 7.77137 9.81445
1 9.80385 7.01469 9.79557
1 11.25 6.18898 10.6214
1 12.0437 5.39528 10.6214
1 12.0521 6.20052 9.82414
1 11.317 5.3944 9.79159
1 12.8374 6.18898 10.6214
1 13.6311 5.39528 10.6214
1 13.6447 6.17267 9.84053
1 12.845 5.40615 9.82981
1 14.4248 6.18898 10.6214
1 15.2185 5.39528 10.6214
1 15.2284 6.17849 9.85206
1 14.4287 5.38545 9.8187
1 16.0122 6.18898 10.6214
1 16.8059 5.39528 10.6214
1 16.819 6.19682 9.8255
1 16.0067 5.39838 9.81605
1 17.5996 6.18898 10.6214
1 18.3933 5.39528 10.6214
1 18.3726 6.17956 9.83495