9376
Atoms. Timestep: 700000
1 0 3.55271e-15 10.7232
1 0.793701 29.2063 10.7232
1 0.82268 29.9409 9.90551
1 0.0779356 29.1878 9.89679
1 1.5874 3.55271e-15 10.7232
1 2.3811 29.2063 10.7232
1 2.40547 29.963 9.90035
1 1.60935 29.1801 9.91985
1 3.1748 3.55271e-15 10.7232
1 3.9685 29.2063 10.7232
1 3.92958 29.9427 9.91185
1 3.15822 29.1549 9.93267
1 4.7622 3.55271e-15 10.7232
1 5.5559 29.2063 10.7232
1 5.58447 29.9177 9.89473
1 4.76685 29.1903 9.89924
1 6.3496 3.55271e-15 10.7232
1 7.1433 29.2063 10.7232
1 7.14546 29.9199 9.90221
1 6.37256 29.1681 9.91901
1 7.93701 3.55271e-15 10.7232
1 8.73071 29.2063 10.7232
1 8.73833 29.9167 9.89446
1 7.94777 29.1627 9.91251
1 9.52441 3.55271e-15 10.7232
1 10.3181 29.2063 10.7232
1 10.3243 29.9147 9.90093
1 9.55069 29.1513 9.89264
1 11.1118 3.55271e-15 10.7232
1 11.9055 29.2063 10.7232
1 11.8984 29.9177 9.90653
1 11.1294 29.1828 9.93105
1 12.6992 3.55271e-15 10.7232
1 13.4929 29.2063 10.7232
1 13.4983 29.9416 9.90688
1 12.7086 29.1738 9.9272
1 14.2866 3.55271e-15 10.7232
1 15.0803 29.2063 10.7232
1 15.0724 29.9404 9.90782
1 14.271 29.1672 9.92253
1 15.874 3.55271e-15 10.7232
1 16.6677 29.2063 10.7232
1 16.6684 29.9254 9.92081
1 15.8646 29.1803 9.93137
1 17.4614 3.55271e-15 10.7232
1 18.2551 29.2063 10.7232
1 18.2335 29.9427 9.88274
1 17.4656 29.1812 9.91816
1 19.0488 3.55271e-15 10.7232
1 19.8425 29.2063 10.7232
1 19.8547 29.9292 9.90115
1 19.053 29.1763 9.90923
1 20.6362 3.55271e-15 10.7232
1 21.4299 29.2063 10.7232
1 21.4231 29.9433 9.89323
1 20.6202 29.1549 9.94698
1 22.2236 3.55271e-15 10.7232
1 23.0173 29.2063 10.7232
1 23.0363 29.9327 9.90101
1 22.2001 29.1971 9.94092
1 23.811 3.55271e-15 10.7232
1 24.6047 29.2063 10.7232
1 24.6165 29.9719 9.8708
1 23.8264 29.1582 9.92741
1 25.3984 3.55271e-15 10.7232
1 26.1921 29.2063 10.7232
1 26.2019 29.9289 9.90487
1 25.3991 29.1817 9.92034
1 26.9858 3.55271e-15 10.7232
1 27.7795 29.2063 10.7232
1 27.7599 29.9299 9.89422
1 26.983 29.1767 9.89573
1 28.5732 3.55271e-15 10.7232
1 29.3669 29.2063 10.7232
1 29.3317 29.9363 9.86313
1 28.5222 29.1806 9.90594
1 0 28.4126 10.7232
1 0.793701 27.6189 10.7232
1 0.846614 28.3871 9.92007
1 0.0897046 27.5914 9.896
1 1.5874 28.4126 10.7232
1 2.3811 27.6189 10.7232
1 2.38863 28.4208 9.9105
1 1.60716 27.6037 9.94171
1 3.1748 28.4126 10.7232
1 3.9685 27.6189 10.7232
1 3.96462 28.3834 9.91904
1 3.19307 27.6198 9.93257
1 4.7622 28.4126 10.7232
1 5.5559 27.6189 10.7232
1 5.58348 28.4082 9.92857
1 4.77536 27.6347 9.95199
1 6.3496 28.4126 10.7232
1 7.1433 27.6189 10.7232
1 7.18814 28.3789 9.95518
1 6.34482 27.5994 9.94459
1 7.93701 28.4126 10.7232
1 8.73071 27.6189 10.7232
1 8.7316 28.3992 9.94598
1 7.94458 27.5944 9.93169
1 9.52441 28.4126 10.7232
1 10.3181 27.6189 10.7232
1 10.3424 28.4207 9.91574
1 9.52261 27.6139 9.94537
1 11.1118 28.4126 10.7232
1 11.9055 27.6189 10.7232
1 11.8997 28.3987 9.91392
1 11.0976 27.6059 9.9374
1 12.6992 28.4126 10.7232
1 13.4929 27.6189 10.7232
1 13.4861 28.3941 9.92628
1 12.6757 27.5968 9.93737
1 14.2866 28.4126 10.7232
1 15.0803 27.6189 10.7232
1 15.0618 28.4131 9.9485
1 14.2699 27.6094 9.93989
1 15.874 28.4126 10.7232
1 16.6677 27.6189 10.7232
1 16.679 28.3945 9.9298
1 15.8754 27.6072 9.9306
1 17.4614 28.4126 10.7232
1 18.2551 27.6189 10.7232
1 18.2533 28.4276 9.92392
1 17.456 27.5881 9.90706
1 19.0488 28.4126 10.7232
1 19.8425 27.6189 10.7232
1 19.8644 28.3953 9.8994
1 19.0298 27.6381 9.91113
1 20.6362 28.4126 10.7232
1 21.4299 27.6189 10.7232
1 21.4394 28.4229 9.92512
1 20.6632 27.5839 9.9453
1 22.2236 28.4126 10.7232
1 23.0173 27.6189 10.7232
1 23.0304 28.4029 9.93474
1 22.2329 27.6259 9.90747
1 23.811 28.4126 10.7232
1 24.6047 27.6189 10.7232
1 24.6179 28.3828 9.92353
1 23.7996 27.6164 9.95172
1 25.3984 28.4126 10.7232
1 26.1921 27.6189 10.7232
1 26.1938 28.4115 9.91901
1 25.3749 27.6101 9.93548
1 26.9858 28.4126 10.7232
1 27.7795 27.6189 10.7232
1 27.7608 28.4081 9.9306
1 26.9687 27.5965 9.90997
1 28.5732 28.4126 10.7232
1 29.3669 27.6189 10.7232
1 29.3032 28.3832 9.8988
1 28.5415 27.5991 9.92962
1 0 26.8252 10.7232
1 0.793701 26.0315 10.7232
1 0.829678 26.8049 9.90556
1 0.0680946 26.0326 9.89951
1 1.5874 26.8252 10.7232
1 2.3811 26.0315 10.7232
1 2.39375 26.8208 9.90815
1 1.62629 26.0072 9.93158
1 3.1748 26.8252 10.7232
1 3.9685 26.0315 10.7232
1 3.97563 26.8481 9.9173
1 3.16686 26.0416 9.91879
1 4.7622 26.8252 10.7232
1 5.5559 26.0315 10.7232
1 5.5548 26.8137 9.90955
1 4.76746 26.0286 9.93602
1 6.3496 26.8252 10.7232
1 7.1433 26.0315 10.7232
1 7.16459 26.8294 9.93327
1 6.37405 26.0286 9.92676
1 7.93701 26.8252 10.7232
1 8.73071 26.0315 10.7232
1 8.74759 26.8088 9.9482
1 7.95617 26.019 9.91152
1 9.52441 26.8252 10.7232
1 10.3181 26.0315 10.7232
1 10.3117 26.8134 9.94485
1 9.52635 26.0331 9.95023
1 11.1118 26.8252 10.7232
1 11.9055 26.0315 10.7232
1 11.9018 26.8034 9.91973
1 11.1008 26.0285 9.95145
1 12.6992 26.8252 10.7232
1 13.4929 26.0315 10.7232
1 13.502 26.8271 9.91546
1 12.7011 26.0122 9.90848
1 14.2866 26.8252 10.7232
1 15.0803 26.0315 10.7232
1 15.0517 26.8325 9.93799
1 14.3035 26.0244 9.88689
1 15.874 26.8252 10.7232
1 16.6677 26.0315 10.7232
1 16.6678 26.8546 9.93468
1 15.8921 26.0251 9.93257
1 17.4614 26.8252 10.7232
1 18.2551 26.0315 10.7232
1 18.2771 26.8582 9.93301
1 17.4598 26.0415 9.92351
1 19.0488 26.8252 10.7232
1 19.8425 26.0315 10.7232
1 19.8465 26.8202 9.92454
1 19.0471 26.0129 9.94015
1 20.6362 26.8252 10.7232
1 21.4299 26.0315 10.7232
1 21.4591 26.7999 9.91446
1 20.6256 26.0311 9.92144
1 22.2236 26.8252 10.7232
1 23.0173 26.0315 10.7232
1 23.0314 26.8328 9.92615
1 22.2327 26.0183 9.93038
1 23.811 26.8252 10.7232
1 24.6047 26.0315 10.7232
1 24.5984 26.8199 9.94213
1 23.8227 26.0525 9.94274
1 25.3984 26.8252 10.7232
1 26.1921 26.0315 10.7232
1 26.187 26.8061 9.90174
1 25.405 26.0315 9.93743
1 26.9858 26.8252 10.7232
1 27.7795 26.0315 10.7232
1 27.7739 26.8412 9.93708
1 27.0115 26.0236 9.95515
1 28.5732 26.8252 10.7232
1 29.3669 26.0315 10.7232
1 29.3141 26.815 9.90981
1 28.5782 26.0441 9.92788
1 0 25.2378 10.7232
1 0.793701 24.4441 10.7232
1 0.83025 25.2452 9.94034
1 0.0655746 24.4332 9.90666
1 1.5874 25.2378 10.7232
1 2.3811 24.4441 10.7232
1 2.37874 25.2443 9.93776
1 1.58642 24.4235 9.91513
1 3.1748 25.2378 10.7232
1 3.9685 24.4441 10.7232
1 3.99319 25.2539 9.92398
1 3.20111 24.442 9.90189
1 4.7622 25.2378 10.7232
1 5.5559 24.4441 10.7232
1 5.54226 25.2234 9.92866
1 4.7518 24.4194 9.92658
1 6.3496 25.2378 10.7232
1 7.1433 24.4441 10.7232
1 7.16162 25.26 9.93662
1 6.37996 24.4467 9.92794
1 7.93701 25.2378 10.7232
1 8.73071 24.4441 10.7232
1 8.73085 25.2255 9.91204
1 7.94357 24.4454 9.91392
1 9.52441 25.2378 10.7232
1 10.3181 24.4441 10.7232
1 10.3555 25.2253 9.93176
1 9.51372 24.4494 9.94278
1 11.1118 25.2378 10.7232
1 11.9055 24.4441 10.7232
1 11.909 25.2379 9.92967
1 11.1363 24.4274 9.91405
1 12.6992 25.2378 10.7232
1 13.4929 24.4441 10.7232
1 13.4976 25.2271 9.92432
1 12.7027 24.4305 9.94278
1 14.2866 25.2378 10.7232
1 15.0803 24.4441 10.7232
1 15.0669 25.241 9.91426
1 14.286 24.4498 9.92746
1 15.874 25.2378 10.7232
1 16.6677 24.4441 10.7232
1 16.6564 25.2415 9.93125
1 15.8635 24.4459 9.94011
1 17.4614 25.2378 10.7232
1 18.2551 24.4441 10.7232
1 18.2598 25.2295 9.93122
1 17.4642 24.4408 9.92269
1 19.0488 25.2378 10.7232
1 19.8425 24.4441 10.7232
1 19.8579 25.2337 9.92571
1 19.0649 24.4441 9.92751
1 20.6362 25.2378 10.7232
1 21.4299 24.4441 10.7232
1 21.4422 25.2446 9.94809
1 20.6502 24.4521 9.92333
1 22.2236 25.2378 10.7232
1 23.0173 24.4441 10.7232
1 23.0181 25.2227 9.96242
1 22.2271 24.4545 9.96452
1 23.811 25.2378 10.7232
1 24.6047 24.4441 10.7232
1 24.5905 25.2465 9.92812
1 23.7944 24.4536 9.93155
1 25.3984 25.2378 10.7232
1 26.1921 24.4441 10.7232
1 26.1957 25.2512 9.94259
1 25.3738 24.4454 9.94276
1 26.9858 25.2378 10.7232
1 27.7795 24.4441 10.7232
1 27.7807 25.2444 9.94579
1 26.9777 24.473 9.95486
1 28.5732 25.2378 10.7232
1 29.3669 24.4441 10.7232
1 29.3149 25.2471 9.88694
1 28.5778 24.4452 9.93498
1 0 23.6504 10.7232
1 0.793701 22.8567 10.7232
1 0.841045 23.614 9.90072
1 0.0639131 22.8583 9.89202
1 1.5874 23.6504 10.7232
1 2.3811 22.8567 10.7232
1 2.38477 23.6636 9.93231
1 1.61775 22.8737 9.93721
1 3.1748 23.6504 10.7232
1 3.9685 22.8567 10.7232
1 3.99185 23.6392 9.92034
1 3.19604 22.8692 9.93004
1 4.7622 23.6504 10.7232
1 5.5559 22.8567 10.7232
1 5.57716 23.6724 9.93091
1 4.77656 22.8697 9.93757
1 6.3496 23.6504 10.7232
1 7.1433 22.8567 10.7232
1 7.14854 23.6482 9.93045
1 6.3547 22.8655 9.93437
1 7.93701 23.6504 10.7232
1 8.73071 22.8567 10.7232
1 8.73315 23.6395 9.93939
1 7.95122 22.8658 9.93171
1 9.52441 23.6504 10.7232
1 10.3181 22.8567 10.7232
1 10.3114 23.6615 9.92418
1 9.56103 22.8767 9.92904
1 11.1118 23.6504 10.7232
1 11.9055 22.8567 10.7232
1 11.9191 23.6639 9.89676
1 11.1272 22.8728 9.94661
1 12.6992 23.6504 10.7232
1 13.4929 22.8567 10.7232
1 13.5139 23.6434 9.91914
1 12.7067 22.8208 9.9094
1 14.2866 23.6504 10.7232
1 15.0803 22.8567 10.7232
1 15.0791 23.6409 9.926
1 14.3171 22.8234 9.91833
1 15.874 23.6504 10.7232
1 16.6677 22.8567 10.7232
1 16.6814 23.6481 9.93708
1 15.9009 22.8735 9.9304
1 17.4614 23.6504 10.7232
1 18.2551 22.8567 10.7232
1 18.2451 23.6382 9.92155
1 17.4639 22.8562 9.92566
1 19.0488 23.6504 10.7232
1 19.8425 22.8567 10.7232
1 19.8539 23.6557 9.93942
1 19.014 22.865 9.88887
1 20.6362 23.6504 10.7232
1 21.4299 22.8567 10.7232
1 21.4517 23.6519 9.94716
1 20.6299 22.867 9.92381
1 22.2236 23.6504 10.7232
1 23.0173 22.8567 10.7232
1 23.0288 23.6686 9.93203
1 22.2457 22.8815 9.91403
1 23.811 23.6504 10.7232
1 24.6047 22.8567 10.7232
1 24.583 23.6352 9.95243
1 23.7973 22.8654 9.93182
1 25.3984 23.6504 10.7232
1 26.1921 22.8567 10.7232
1 26.201 23.6771 9.95393
1 25.3892 22.8856 9.92951
1 26.9858 23.6504 10.7232
1 27.7795 22.8567 10.7232
1 27.7573 23.6841 9.92718
1 26.9952 22.8517 9.93415
1 28.5732 23.6504 10.7232
1 29.3669 22.8567 10.7232
1 29.3229 23.6242 9.90562
1 28.5416 22.8792 9.93729
1 0 22.063 10.7232
1 0.793701 21.2693 10.7232
1 0.837818 22.0572 9.91587
1 0.0785457 21.2567 9.87873
1 1.5874 22.063 10.7232
1 2.3811 21.2693 10.7232
1 2.38678 22.0844 9.92018
1 1.62251 21.2606 9.93722
1 3.1748 22.063 10.7232
1 3.9685 21.2693 10.7232
1 3.98735 22.0767 9.90443
1 3.17704 21.2714 9.94683
1 4.7622 22.063 10.7232
1 5.5559 21.2693 10.7232
1 5.59828 22.043 9.92517
1 4.75438 21.2833 9.95117
1 6.3496 22.063 10.7232
1 7.1433 21.2693 10.7232
1 7.12459 22.059 9.93279
1 6.35275 21.2576 9.91324
1 7.93701 22.063 10.7232
1 8.73071 21.2693 10.7232
1 8.7577 22.0988 9.92236
1 7.92268 21.2797 9.92449
1 9.52441 22.063 10.7232
1 10.3181 21.2693 10.7232
1 10.3216 22.0471 9.95408
1 9.52413 21.2513 9.92864
1 11.1118 22.063 10.7232
1 11.9055 21.2693 10.7232
1 11.905 22.0603 9.94173
1 11.102 21.2538 9.94223
1 12.6992 22.063 10.7232
1 13.4929 21.2693 10.7232
1 13.4966 22.0542 9.92193
1 12.7106 21.2658 9.92938
1 14.2866 22.063 10.7232
1 15.0803 21.2693 10.7232
1 15.0956 22.0533 9.93046
1 14.2916 21.2591 9.92169
1 15.874 22.063 10.7232
1 16.6677 21.2693 10.7232
1 16.655 22.0484 9.91147
1 15.8932 21.2517 9.9098
1 17.4614 22.063 10.7232
1 18.2551 21.2693 10.7232
1 18.2549 22.0527 9.9272
1 17.4624 21.2663 9.92961
1 19.0488 22.063 10.7232
1 19.8425 21.2693 10.7232
1 19.8413 22.0802 9.90564
1 19.0517 21.2564 9.93193
1 20.6362 22.063 10.7232
1 21.4299 21.2693 10.7232
1 21.4587 22.0627 9.93937
1 20.6524 21.2781 9.92181
1 22.2236 22.063 10.7232
1 23.0173 21.2693 10.7232
1 23.0495 22.0599 9.92076
1 22.2505 21.2537 9.91993
1 23.811 22.063 10.7232
1 24.6047 21.2693 10.7232
1 24.6027 22.1023 9.92063
1 23.8162 21.2645 9.93028
1 25.3984 22.063 10.7232
1 26.1921 21.2693 10.7232
1 26.1884 22.0768 9.93339
1 25.4177 21.2775 9.91639
1 26.9858 22.063 10.7232
1 27.7795 21.2693 10.7232
1 27.7585 22.0625 9.90115
1 26.9776 21.2733 9.93012
1 28.5732 22.063 10.7232
1 29.3669 21.2693 10.7232
1 29.3186 22.0692 9.88625
1 28.5722 21.2556 9.90384
1 0 20.4756 10.7232
1 0.793701 19.6819 10.7232
1 0.84031 20.4667 9.9235
1 0.0642252 19.6865 9.8966
1 1.5874 20.4756 10.7232
1 2.3811 19.6819 10.7232
1 2.3831 20.4753 9.93324
1 1.59613 19.6763 9.93099
1 3.1748 20.4756 10.7232
1 3.9685 19.6819 10.7232
1 3.97346 20.4768 9.95519
1 3.16735 19.6869 9.93362
1 4.7622 20.4756 10.7232
1 5.5559 19.6819 10.7232
1 5.56147 20.4754 9.95161
1 4.77754 19.6542 9.95788
1 6.3496 20.4756 10.7232
1 7.1433 19.6819 10.7232
1 7.14651 20.4398 9.93946
1 6.32647 19.6534 9.92212
1 7.93701 20.4756 10.7232
1 8.73071 19.6819 10.7232
1 8.71308 20.4925 9.93306
1 7.9594 19.6706 9.92957
1 9.52441 20.4756 10.7232
1 10.3181 19.6819 10.7232
1 10.3182 20.4636 9.94685
1 9.52723 19.7055 9.93057
1 11.1118 20.4756 10.7232
1 11.9055 19.6819 10.7232
1 11.9177 20.4962 9.93028
1 11.132 19.6875 9.93658
1 12.6992 20.4756 10.7232
1 13.4929 19.6819 10.7232
1 13.4951 20.4998 9.96108
1 12.7293 19.6607 9.94691
1 14.2866 20.4756 10.7232
1 15.0803 19.6819 10.7232
1 15.1062 20.4816 9.92875
1 14.2823 19.6952 9.92467
1 15.874 20.4756 10.7232
1 16.6677 19.6819 10.7232
1 16.6402 20.4747 9.93133
1 15.8934 19.6689 9.92452
1 17.4614 20.4756 10.7232
1 18.2551 19.6819 10.7232
1 18.2554 20.5013 9.93887
1 17.4782 19.6875 9.95787
1 19.0488 20.4756 10.7232
1 19.8425 19.6819 10.7232
1 19.8353 20.4944 9.94082
1 19.0455 19.6803 9.93296
1 20.6362 20.4756 10.7232
1 21.4299 19.6819 10.7232
1 21.4331 20.4707 9.92362
1 20.6284 19.6706 9.94825
1 22.2236 20.4756 10.7232
1 23.0173 19.6819 10.7232
1 23.0231 20.4667 9.94723
1 22.2428 19.6739 9.92331
1 23.811 20.4756 10.7232
1 24.6047 19.6819 10.7232
1 24.6179 20.4549 9.92938
1 23.7817 19.6829 9.93432
1 25.3984 20.4756 10.7232
1 26.1921 19.6819 10.7232
1 26.1728 20.4751 9.92625
1 25.3976 19.6751 9.93072
1 26.9858 20.4756 10.7232
1 27.7795 19.6819 10.7232
1 27.7438 20.4974 9.9407
1 26.9675 19.6845 9.94398
1 28.5732 20.4756 10.7232
1 29.3669 19.6819 10.7232
1 29.2976 20.4917 9.90612
1 28.5297 19.6904 9.91805
1 0 18.8882 10.7232
1 0.793701 18.0945 10.7232
1 0.820413 18.8724 9.93299
1 0.0469329 18.0804 9.90901
1 1.5874 18.8882 10.7232
1 2.3811 18.0945 10.7232
1 2.38404 18.8873 9.94565
1 1.60058 18.0952 9.93003
1 3.1748 18.8882 10.7232
1 3.9685 18.0945 10.7232
1 3.9649 18.8809 9.92353
1 3.18396 18.0991 9.90637
1 4.7622 18.8882 10.7232
1 5.5559 18.0945 10.7232
1 5.55672 18.8613 9.92279
1 4.76057 18.0997 9.92192
1 6.3496 18.8882 10.7232
1 7.1433 18.0945 10.7232
1 7.15495 18.9016 9.93901
1 6.34947 18.0808 9.93043
1 7.93701 18.8882 10.7232
1 8.73071 18.0945 10.7232
1 8.75906 18.8831 9.92423
1 7.94993 18.0782 9.91775
1 9.52441 18.8882 10.7232
1 10.3181 18.0945 10.7232
1 10.3284 18.8938 9.94147
1 9.5583 18.0951 9.91243
1 11.1118 18.8882 10.7232
1 11.9055 18.0945 10.7232
1 11.9124 18.8812 9.93847
1 11.114 18.091 9.93845
1 12.6992 18.8882 10.7232
1 13.4929 18.0945 10.7232
1 13.4942 18.8732 9.96068
1 12.6967 18.0813 9.92835
1 14.2866 18.8882 10.7232
1 15.0803 18.0945 10.7232
1 15.0828 18.8952 9.95444
1 14.3332 18.0786 9.91618
1 15.874 18.8882 10.7232
1 16.6677 18.0945 10.7232
1 16.6763 18.8785 9.93359
1 15.8475 18.081 9.94189
1 17.4614 18.8882 10.7232
1 18.2551 18.0945 10.7232
1 18.267 18.893 9.92762
1 17.4494 18.0989 9.9295
1 19.0488 18.8882 10.7232
1 19.8425 18.0945 10.7232
1 19.8404 18.8904 9.92808
1 19.05 18.1007 9.91723
1 20.6362 18.8882 10.7232
1 21.4299 18.0945 10.7232
1 21.4417 18.8925 9.94458
1 20.6261 18.101 9.93002
1 22.2236 18.8882 10.7232
1 23.0173 18.0945 10.7232
1 23.014 18.8606 9.93271
1 22.2156 18.0908 9.92983
1 23.811 18.8882 10.7232
1 24.6047 18.0945 10.7232
1 24.5885 18.8852 9.94422
1 23.8116 18.1081 9.91762
1 25.3984 18.8882 10.7232
1 26.1921 18.0945 10.7232
1 26.1815 18.8686 9.93031
1 25.3903 18.0887 9.95769
1 26.9858 18.8882 10.7232
1 27.7795 18.0945 10.7232
1 27.7602 18.8965 9.94443
1 26.9806 18.0938 9.94339
1 28.5732 18.8882 10.7232
1 29.3669 18.0945 10.7232
1 29.2861 18.8876 9.89899
1 28.5274 18.0923 9.90865
1 0 17.3008 10.7232
1 0.793701 16.5071 10.7232
1 0.82572 17.3208 9.91998
1 0.0381396 16.5072 9.84675
1 1.5874 17.3008 10.7232
1 2.3811 16.5071 10.7232
1 2.38535 17.2903 9.92241
1 1.59105 16.5134 9.92027
1 3.1748 17.3008 10.7232
1 3.9685 16.5071 10.7232
1 3.98045 17.2945 9.9203
1 3.16208 16.5098 9.93103
1 4.7622 17.3008 10.7232
1 5.5559 16.5071 10.7232
1 5.55673 17.3112 9.92206
1 4.76244 16.5253 9.91584
1 6.3496 17.3008 10.7232
1 7.1433 16.5071 10.7232
1 7.13093 17.3207 9.92988
1 6.33885 16.514 9.9242
1 7.93701 17.3008 10.7232
1 8.73071 16.5071 10.7232
1 8.76644 17.2748 9.91747
1 7.9427 16.5155 9.90955
1 9.52441 17.3008 10.7232
1 10.3181 16.5071 10.7232
1 10.3237 17.2813 9.91637
1 9.54952 16.492 9.93442
1 11.1118 17.3008 10.7232
1 11.9055 16.5071 10.7232
1 11.9014 17.2926 9.93759
1 11.1139 16.509 9.94259
1 12.6992 17.3008 10.7232
1 13.4929 16.5071 10.7232
1 13.5071 17.3012 9.9329
1 12.7193 16.4768 9.92687
1 14.2866 17.3008 10.7232
1 15.0803 16.5071 10.7232
1 15.0629 17.2851 9.93565
1 14.2915 16.4926 9.94148
1 15.874 17.3008 10.7232
1 16.6677 16.5071 10.7232
1 16.6774 17.3003 9.93967
1 15.8716 16.5102 9.92817
1 17.4614 17.3008 10.7232
1 18.2551 16.5071 10.7232
1 18.2472 17.2898 9.93059
1 17.4559 16.5064 9.90489
1 19.0488 17.3008 10.7232
1 19.8425 16.5071 10.7232
1 19.845 17.2881 9.90618
1 19.0506 16.5137 9.936
1 20.6362 17.3008 10.7232
1 21.4299 16.5071 10.7232
1 21.4212 17.2899 9.92768
1 20.6369 16.5 9.92702
1 22.2236 17.3008 10.7232
1 23.0173 16.5071 10.7232
1 23.0049 17.2818 9.91566
1 22.2293 16.5263 9.92816
1 23.811 17.3008 10.7232
1 24.6047 16.5071 10.7232
1 24.5817 17.3058 9.89989
1 23.8086 16.4993 9.91931
1 25.3984 17.3008 10.7232
1 26.1921 16.5071 10.7232
1 26.1968 17.2865 9.9508
1 25.3947 16.4919 9.91912
1 26.9858 17.3008 10.7232
1 27.7795 16.5071 10.7232
1 27.7449 17.2859 9.9566
1 26.9565 16.5002 9.91968
1 28.5732 17.3008 10.7232
1 29.3669 16.5071 10.7232
1 29.2811 17.3085 9.91503
1 28.5234 16.4741 9.91139
1 0 15.7134 10.7232
1 0.793701 14.9197 10.7232
1 0.802915 15.7065 9.91942
1 0.0547251 14.9086 9.91768
1 1.5874 15.7134 10.7232
1 2.3811 14.9197 10.7232
1 2.38402 15.7011 9.9543
1 1.60002 14.9199 9.92513
1 3.1748 15.7134 10.7232
1 3.9685 14.9197 10.7232
1 3.97817 15.7069 9.94946
1 3.19682 14.9571 9.92213
1 4.7622 15.7134 10.7232
1 5.5559 14.9197 10.7232
1 5.56119 15.7325 9.92537
1 4.78955 14.9241 9.94532
1 6.3496 15.7134 10.7232
1 7.1433 14.9197 10.7232
1 7.12799 15.7387 9.91067
1 6.3438 14.9303 9.94507
1 7.93701 15.7134 10.7232
1 8.73071 14.9197 10.7232
1 8.7083 15.7103 9.93025
1 7.93135 14.9254 9.90926
1 9.52441 15.7134 10.7232
1 10.3181 14.9197 10.7232
1 10.3123 15.6924 9.93911
1 9.50578 14.9492 9.89664
1 11.1118 15.7134 10.7232
1 11.9055 14.9197 10.7232
1 11.9318 15.7274 9.94202
1 11.1387 14.9317 9.91916
1 12.6992 15.7134 10.7232
1 13.4929 14.9197 10.7232
1 13.4957 15.7176 9.92751
1 12.6888 14.9172 9.93034
1 14.2866 15.7134 10.7232
1 15.0803 14.9197 10.7232
1 15.0634 15.6843 9.91982
1 14.271 14.9142 9.92778
1 15.874 15.7134 10.7232
1 16.6677 14.9197 10.7232
1 16.6538 15.7129 9.9221
1 15.8964 14.9123 9.93261
1 17.4614 15.7134 10.7232
1 18.2551 14.9197 10.7232
1 18.2485 15.7159 9.94415
1 17.4742 14.9178 9.93938
1 19.0488 15.7134 10.7232
1 19.8425 14.9197 10.7232
1 19.8225 15.7152 9.93087
1 19.0539 14.9068 9.93301
1 20.6362 15.7134 10.7232
1 21.4299 14.9197 10.7232
1 21.4512 15.7296 9.92568
1 20.641 14.9203 9.89979
1 22.2236 15.7134 10.7232
1 23.0173 14.9197 10.7232
1 23.0148 15.7094 9.9305
1 22.2068 14.9323 9.93501
1 23.811 15.7134 10.7232
1 24.6047 14.9197 10.7232
1 24.6175 15.7059 9.92385
1 23.8038 14.8938 9.96707
1 25.3984 15.7134 10.7232
1 26.1921 14.9197 10.7232
1 26.1933 15.7079 9.94015
1 25.3991 14.9119 9.90396
1 26.9858 15.7134 10.7232
1 27.7795 14.9197 10.7232
1 27.7861 15.7209 9.96159
1 27.0139 14.9187 9.93995
1 28.5732 15.7134 10.7232
1 29.3669 14.9197 10.7232
1 29.2933 15.6898 9.87957
1 28.5298 14.9417 9.91205
1 0 14.126 10.7232
1 0.793701 13.3323 10.7232
1 0.807468 14.1139 9.92302
1 0.0597981 13.3263 9.88875
1 1.5874 14.126 10.7232
1 2.3811 13.3323 10.7232
1 2.38727 14.1168 9.92605
1 1.58964 13.332 9.93115
1 3.1748 14.126 10.7232
1 3.9685 13.3323 10.7232
1 3.97544 14.1204 9.93554
1 3.18182 13.3401 9.92769
1 4.7622 14.126 10.7232
1 5.5559 13.3323 10.7232
1 5.54756 14.1209 9.93179
1 4.76014 13.3146 9.94056
1 6.3496 14.126 10.7232
1 7.1433 13.3323 10.7232
1 7.13935 14.1237 9.93428
1 6.35632 13.3568 9.93446
1 7.93701 14.126 10.7232
1 8.73071 13.3323 10.7232
1 8.73706 14.1349 9.92379
1 7.92946 13.3248 9.94205
1 9.52441 14.126 10.7232
1 10.3181 13.3323 10.7232
1 10.3109 14.1463 9.93542
1 9.52396 13.3262 9.91738
1 11.1118 14.126 10.7232
1 11.9055 13.3323 10.7232
1 11.9128 14.1263 9.93667
1 11.1118 13.3223 9.97217
1 12.6992 14.126 10.7232
1 13.4929 13.3323 10.7232
1 13.4728 14.1039 9.94122
1 12.6679 13.3338 9.9205
1 14.2866 14.126 10.7232
1 15.0803 13.3323 10.7232
1 15.0678 14.127 9.91754
1 14.2876 13.3509 9.9305
1 15.874 14.126 10.7232
1 16.6677 13.3323 10.7232
1 16.6712 14.157 9.94604
1 15.8809 13.3224 9.96062
1 17.4614 14.126 10.7232
1 18.2551 13.3323 10.7232
1 18.2538 14.1164 9.95762
1 17.4553 13.3373 9.95789
1 19.0488 14.126 10.7232
1 19.8425 13.3323 10.7232
1 19.8611 14.1307 9.90425
1 19.0343 13.3474 9.927
1 20.6362 14.126 10.7232
1 21.4299 13.3323 10.7232
1 21.419 14.1173 9.92896
1 20.6536 13.3253 9.93403
1 22.2236 14.126 10.7232
1 23.0173 13.3323 10.7232
1 23.0185 14.1246 9.91083
1 22.2221 13.303 9.96111
1 23.811 14.126 10.7232
1 24.6047 13.3323 10.7232
1 24.5958 14.1303 9.93612
1 23.8081 13.3291 9.91476
1 25.3984 14.126 10.7232
1 26.1921 13.3323 10.7232
1 26.2186 14.1163 9.94342
1 25.4018 13.358 9.90899
1 26.9858 14.126 10.7232
1 27.7795 13.3323 10.7232
1 27.7681 14.1238 9.90029
1 26.9748 13.332 9.91718
1 28.5732 14.126 10.7232
1 29.3669 13.3323 10.7232
1 29.3004 14.142 9.90479
1 28.5412 13.341 9.92575
1 0 12.5386 10.7232
1 0.793701 11.7449 10.7232
1 0.839358 12.5347 9.91975
1 0.0689867 11.7518 9.92003
1 1.5874 12.5386 10.7232
1 2.3811 11.7449 10.7232
1 2.38422 12.546 9.95304
1 1.59329 11.7423 9.91964
1 3.1748 12.5386 10.7232
1 3.9685 11.7449 10.7232
1 3.98482 12.5515 9.91534
1 3.1952 11.7681 9.90678
1 4.7622 12.5386 10.7232
1 5.5559 11.7449 10.7232
1 5.55306 12.5342 9.94025
1 4.75713 11.7196 9.93607
1 6.3496 12.5386 10.7232
1 7.1433 11.7449 10.7232
1 7.13899 12.5657 9.91469
1 6.34242 11.7478 9.91233
1 7.93701 12.5386 10.7232
1 8.73071 11.7449 10.7232
1 8.72749 12.5355 9.92617
1 7.95212 11.7477 9.94343
1 9.52441 12.5386 10.7232
1 10.3181 11.7449 10.7232
1 10.3336 12.5136 9.94713
1 9.55296 11.7648 9.94369
1 11.1118 12.5386 10.7232
1 11.9055 11.7449 10.7232
1 11.9085 12.5283 9.93534
1 11.1189 11.7226 9.94874
1 12.6992 12.5386 10.7232
1 13.4929 11.7449 10.7232
1 13.4713 12.5603 9.93153
1 12.6997 11.7568 9.91819
1 14.2866 12.5386 10.7232
1 15.0803 11.7449 10.7232
1 15.072 12.5399 9.91
1 14.3048 11.7535 9.91964
1 15.874 12.5386 10.7232
1 16.6677 11.7449 10.7232
1 16.6807 12.5258 9.93101
1 15.8664 11.7242 9.92519
1 17.4614 12.5386 10.7232
1 18.2551 11.7449 10.7232
1 18.2544 12.5449 9.91234
1 17.4567 11.7388 9.9259
1 19.0488 12.5386 10.7232
1 19.8425 11.7449 10.7232
1 19.8505 12.542 9.90723
1 19.051 11.7872 9.91347
1 20.6362 12.5386 10.7232
1 21.4299 11.7449 10.7232
1 21.4311 12.523 9.92902
1 20.64 11.7391 9.9228
1 22.2236 12.5386 10.7232
1 23.0173 11.7449 10.7232
1 23.0165 12.5135 9.9341
1 22.2338 11.7565 9.92168
1 23.811 12.5386 10.7232
1 24.6047 11.7449 10.7232
1 24.6191 12.5378 9.96583
1 23.8109 11.7436 9.93343
1 25.3984 12.5386 10.7232
1 26.1921 11.7449 10.7232
1 26.2024 12.559 9.93587
1 25.3856 11.7541 9.91615
1 26.9858 12.5386 10.7232
1 27.7795 11.7449 10.7232
1 27.7656 12.5411 9.96458
1 26.9656 11.7383 9.9364
1 28.5732 12.5386 10.7232
1 29.3669 11.7449 10.7232
1 29.308 12.5365 9.90649
1 28.5428 11.7348 9.94445
1 0 10.9512 10.7232
1 0.793701 10.1575 10.7232
1 0.844242 10.9413 9.92894
1 0.0807594 10.1667 9.89094
1 1.5874 10.9512 10.7232
1 2.3811 10.1575 10.7232
1 2.42567 10.9689 9.93087
1 1.62405 10.1378 9.93171
1 3.1748 10.9512 10.7232
1 3.9685 10.1575 10.7232
1 3.98546 10.9357 9.92826
1 3.19453 10.1472 9.92533
1 4.7622 10.9512 10.7232
1 5.5559 10.1575 10.7232
1 5.56456 10.9518 9.94213
1 4.77019 10.1357 9.91706
1 6.3496 10.9512 10.7232
1 7.1433 10.1575 10.7232
1 7.14645 10.9545 9.92497
1 6.37345 10.1582 9.93963
1 7.93701 10.9512 10.7232
1 8.73071 10.1575 10.7232
1 8.74199 10.9823 9.92586
1 7.94918 10.1582 9.92636
1 9.52441 10.9512 10.7232
1 10.3181 10.1575 10.7232
1 10.3132 10.9538 9.95337
1 9.51252 10.1634 9.9332
1 11.1118 10.9512 10.7232
1 11.9055 10.1575 10.7232
1 11.9212 10.9577 9.94476
1 11.1019 10.1652 9.94503
1 12.6992 10.9512 10.7232
1 13.4929 10.1575 10.7232
1 13.4938 10.9568 9.9492
1 12.6978 10.1383 9.91589
1 14.2866 10.9512 10.7232
1 15.0803 10.1575 10.7232
1 15.0619 10.9538 9.89938
1 14.2958 10.1595 9.93377
1 15.874 10.9512 10.7232
1 16.6677 10.1575 10.7232
1 16.6613 10.9333 9.91507
1 15.8614 10.2007 9.91983
1 17.4614 10.9512 10.7232
1 18.2551 10.1575 10.7232
1 18.2546 10.9794 9.92248
1 17.4558 10.1733 9.93735
1 19.0488 10.9512 10.7232
1 19.8425 10.1575 10.7232
1 19.8246 10.978 9.93442
1 19.0399 10.1766 9.9516
1 20.6362 10.9512 10.7232
1 21.4299 10.1575 10.7232
1 21.4381 10.9829 9.94667
1 20.6195 10.1781 9.95152
1 22.2236 10.9512 10.7232
1 23.0173 10.1575 10.7232
1 23.0231 10.9459 9.95702
1 22.2092 10.1846 9.93535
1 23.811 10.9512 10.7232
1 24.6047 10.1575 10.7232
1 24.6034 10.9651 9.91843
1 23.8246 10.1625 9.93006
1 25.3984 10.9512 10.7232
1 26.1921 10.1575 10.7232
1 26.1734 10.9645 9.94195
1 25.3994 10.1746 9.94787
1 26.9858 10.9512 10.7232
1 27.7795 10.1575 10.7232
1 27.7306 10.9578 9.91759
1 26.9776 10.1389 9.93762
1 28.5732 10.9512 10.7232
1 29.3669 10.1575 10.7232
1 29.3077 10.9422 9.88542
1 28.5564 10.1548 9.92307
1 0 9.36379 10.7232
1 0.793701 8.57009 10.7232
1 0.817402 9.35918 9.93877
1 0.0596858 8.5751 9.88688
1 1.5874 9.36379 10.7232
1 2.3811 8.57009 10.7232
1 2.40686 9.35225 9.95373
1 1.58231 8.54346 9.96627
1 3.1748 9.36379 10.7232
1 3.9685 8.57009 10.7232
1 3.98508 9.33698 9.95476
1 3.18287 8.56602 9.93849
1 4.7622 9.36379 10.7232
1 5.5559 8.57009 10.7232
1 5.54248 9.33215 9.92132
1 4.77152 8.56926 9.92215
1 6.3496 9.36379 10.7232
1 7.1433 8.57009 10.7232
1 7.16756 9.36151 9.94823
1 6.34314 8.56925 9.93759
1 7.93701 9.36379 10.7232
1 8.73071 8.57009 10.7232
1 8.74152 9.35163 9.91061
1 7.95732 8.58232 9.91044
1 9.52441 9.36379 10.7232
1 10.3181 8.57009 10.7232
1 10.3295 9.37342 9.93588
1 9.53563 8.58136 9.89919
1 11.1118 9.36379 10.7232
1 11.9055 8.57009 10.7232
1 11.8941 9.35259 9.91466
1 11.1071 8.57709 9.92911
1 12.6992 9.36379 10.7232
1 13.4929 8.57009 10.7232
1 13.492 9.36087 9.92962
1 12.6897 8.55631 9.94037
1 14.2866 9.36379 10.7232
1 15.0803 8.57009 10.7232
1 15.0824 9.397 9.93474
1 14.286 8.57983 9.90514
1 15.874 9.36379 10.7232
1 16.6677 8.57009 10.7232
1 16.651 9.37686 9.9286
1 15.8863 8.58032 9.93063
1 17.4614 9.36379 10.7232
1 18.2551 8.57009 10.7232
1 18.2583 9.38791 9.92655
1 17.4737 8.58256 9.92531
1 19.0488 9.36379 10.7232
1 19.8425 8.57009 10.7232
1 19.8407 9.37436 9.92731
1 19.0701 8.57894 9.92628
1 20.6362 9.36379 10.7232
1 21.4299 8.57009 10.7232
1 21.4353 9.38995 9.93729
1 20.6447 8.58302 9.9507
1 22.2236 9.36379 10.7232
1 23.0173 8.57009 10.7232
1 22.9991 9.38125 9.91505
1 22.2297 8.58792 9.9173
1 23.811 9.36379 10.7232
1 24.6047 8.57009 10.7232
1 24.6041 9.36051 9.92852
1 23.7904 8.58626 9.93982
1 25.3984 9.36379 10.7232
1 26.1921 8.57009 10.7232
1 26.1795 9.36964 9.91673
1 25.403 8.56703 9.93916
1 26.9858 9.36379 10.7232
1 27.7795 8.57009 10.7232
1 27.7798 9.3508 9.93464
1 26.9711 8.57398 9.92634
1 28.5732 9.36379 10.7232
1 29.3669 8.57009 10.7232
1 29.2936 9.34995 9.91755
1 28.5568 8.55282 9.9384
1 0 7.77639 10.7232
1 0.793701 6.98268 10.7232
1 0.806567 7.7906 9.93485
1 0.0470866 7.00217 9.90574
1 1.5874 7.77639 10.7232
1 2.3811 6.98268 10.7232
1 2.41204 7.76244 9.94019
1 1.5805 6.96923 9.90969
1 3.1748 7.77639 10.7232
1 3.9685 6.98268 10.7232
1 3.97078 7.77585 9.93627
1 3.19544 6.96818 9.95743
1 4.7622 7.77639 10.7232
1 5.5559 6.98268 10.7232
1 5.55835 7.77487 9.91596
1 4.76451 6.99298 9.95181
1 6.3496 7.77639 10.7232
1 7.1433 6.98268 10.7232
1 7.16355 7.78601 9.92922
1 6.38237 6.98652 9.93742
1 7.93701 7.77639 10.7232
1 8.73071 6.98268 10.7232
1 8.75479 7.78954 9.93111
1 7.96279 6.98143 9.90061
1 9.52441 7.77639 10.7232
1 10.3181 6.98268 10.7232
1 10.3152 7.78561 9.94583
1 9.50296 6.95391 9.92356
1 11.1118 7.77639 10.7232
1 11.9055 6.98268 10.7232
1 11.8864 7.78105 9.95192
1 11.1375 6.99463 9.93831
1 12.6992 7.77639 10.7232
1 13.4929 6.98268 10.7232
1 13.5104 7.78553 9.9201
1 12.7017 6.96203 9.92134
1 14.2866 7.77639 10.7232
1 15.0803 6.98268 10.7232
1 15.0968 7.78883 9.94278
1 14.2957 6.97183 9.94013
1 15.874 7.77639 10.7232
1 16.6677 6.98268 10.7232
1 16.6873 7.76988 9.94766
1 15.8903 6.99327 9.90477
1 17.4614 7.77639 10.7232
1 18.2551 6.98268 10.7232
1 18.2554 7.77529 9.93416
1 17.4615 6.99682 9.90976
1 19.0488 7.77639 10.7232
1 19.8425 6.98268 10.7232
1 19.8496 7.7543 9.92909
1 19.0484 6.98261 9.93315
1 20.6362 7.77639 10.7232
1 21.4299 6.98268 10.7232
1 21.4367 7.76852 9.93551
1 20.6397 6.97547 9.93694
1 22.2236 7.77639 10.7232
1 23.0173 6.98268 10.7232
1 23.0011 7.76692 9.94897
1 22.2269 6.9793 9.93177
1 23.811 7.77639 10.7232
1 24.6047 6.98268 10.7232
1 24.5887 7.7881 9.92675
1 23.8047 6.97207 9.92062
1 25.3984 7.77639 10.7232
1 26.1921 6.98268 10.7232
1 26.1786 7.78334 9.93081
1 25.3952 7.00413 9.91709
1 26.9858 7.77639 10.7232
1 27.7795 6.98268 10.7232
1 27.7656 7.76645 9.91172
1 26.9821 6.96169 9.93728
1 28.5732 7.77639 10.7232
1 29.3669 6.98268 10.7232
1 29.2915 7.78476 9.90365
1 28.5346 6.97422 9.93959
1 0 6.18898 10.7232
1 0.793701 5.39528 10.7232
1 0.827423 6.19715 9.91941
1 0.087816 5.4247 9.90225
1 1.5874 6.18898 10.7232
1 2.3811 5.39528 10.7232
1 2.38586 6.18368 9.93167
1 1.59508 5.40786 9.92498
1 3.1748 6.18898 10.7232
1 3.9685 5.39528 10.7232
1 3.96601 6.18849 9.94691
1 3.15565 5.40518 9.91022
1 4.7622 6.18898 10.7232
1 5.5559 5.39528 10.7232
1 5.55036 6.20765 9.92223
1 4.80195 5.39421 9.95078
1 6.3496 6.18898 10.7232
1 7.1433 5.39528 10.7232
1 7.15623 6.19979 9.93078
1 6.36789 5.39968 9.92418
1 7.93701 6.18898 10.7232
1 8.73071 5.39528 10.7232
1 8.73647 6.17271 9.94917
1 7.92776 5.41615 9.90899