9376
Atoms. Timestep: 4000000
1 30 3.55271e-15 10.6749
1 0.793701 29.2063 10.6749
1 0.823531 29.9325 9.81816
1 0.0801618 29.1862 9.82683
1 1.5874 3.55271e-15 10.6749
1 2.3811 29.2063 10.6749
1 2.39404 29.9277 9.84228
1 1.62159 29.1826 9.87154
1 3.1748 3.55271e-15 10.6749
1 3.9685 29.2063 10.6749
1 3.97459 29.8924 9.83137
1 3.15825 29.1674 9.92727
1 4.7622 3.55271e-15 10.6749
1 5.5559 29.2063 10.6749
1 5.56208 29.9427 9.85643
1 4.77646 29.2023 9.86554
1 6.3496 3.55271e-15 10.6749
1 7.1433 29.2063 10.6749
1 7.14794 29.9311 9.85423
1 6.33418 29.1889 9.86818
1 7.93701 3.55271e-15 10.6749
1 8.73071 29.2063 10.6749
1 8.72097 29.9264 9.84201
1 7.95532 29.1752 9.85788
1 9.52441 3.55271e-15 10.6749
1 10.3181 29.2063 10.6749
1 10.3009 29.9506 9.82564
1 9.51281 29.163 9.88455
1 11.1118 3.55271e-15 10.6749
1 11.9055 29.2063 10.6749
1 11.8942 29.936 9.83812
1 11.0701 29.1885 9.90022
1 12.6992 3.55271e-15 10.6749
1 13.4929 29.2063 10.6749
1 13.4696 29.9257 9.85091
1 12.7055 29.1835 9.88337
1 14.2866 3.55271e-15 10.6749
1 15.0803 29.2063 10.6749
1 15.0908 29.9398 9.8606
1 14.2746 29.171 9.86279
1 15.874 3.55271e-15 10.6749
1 16.6677 29.2063 10.6749
1 16.6849 29.9151 9.85621
1 15.8718 29.1666 9.87716
1 17.4614 3.55271e-15 10.6749
1 18.2551 29.2063 10.6749
1 18.2303 29.9439 9.84531
1 17.4799 29.1581 9.85695
1 19.0488 3.55271e-15 10.6749
1 19.8425 29.2063 10.6749
1 19.842 29.9364 9.86828
1 19.0562 29.1893 9.87328
1 20.6362 3.55271e-15 10.6749
1 21.4299 29.2063 10.6749
1 21.4273 29.9523 9.83476
1 20.6439 29.1742 9.86853
1 22.2236 3.55271e-15 10.6749
1 23.0173 29.2063 10.6749
1 23.0004 29.9195 9.86762
1 22.213 29.1861 9.87071
1 23.811 3.55271e-15 10.6749
1 24.6047 29.2063 10.6749
1 24.5905 29.9095 9.8565
1 23.8191 29.1749 9.85175
1 25.3984 3.55271e-15 10.6749
1 26.1921 29.2063 10.6749
1 26.202 29.9498 9.83329
1 25.4156 29.1697 9.88234
1 26.9858 3.55271e-15 10.6749
1 27.7795 29.2063 10.6749
1 27.7673 29.9051 9.83284
1 26.9833 29.1567 9.87662
1 28.5732 3.55271e-15 10.6749
1 29.3669 29.2063 10.6749
1 29.2928 29.9425 9.82131
1 28.537 29.1916 9.87082
1 30 28.4126 10.6749
1 0.793701 27.6189 10.6749
1 0.824045 28.3969 9.86784
1 0.068244 27.5899 9.84504
1 1.5874 28.4126 10.6749
1 2.3811 27.6189 10.6749
1 2.39628 28.375 9.90219
1 1.60285 27.6212 9.87053
1 3.1748 28.4126 10.6749
1 3.9685 27.6189 10.6749
1 3.9766 28.3975 9.8882
1 3.20544 27.629 9.89342
1 4.7622 28.4126 10.6749
1 5.5559 27.6189 10.6749
1 5.56066 28.388 9.8803
1 4.78014 27.6005 9.89852
1 6.3496 28.4126 10.6749
1 7.1433 27.6189 10.6749
1 7.13341 28.3854 9.90723
1 6.35376 27.6063 9.91281
1 7.93701 28.4126 10.6749
1 8.73071 27.6189 10.6749
1 8.73991 28.4142 9.88274
1 7.94985 27.6293 9.89579
1 9.52441 28.4126 10.6749
1 10.3181 27.6189 10.6749
1 10.3174 28.3925 9.86974
1 9.53684 27.6115 9.87316
1 11.1118 28.4126 10.6749
1 11.9055 27.6189 10.6749
1 11.8993 28.4014 9.87758
1 11.1458 27.6239 9.89899
1 12.6992 28.4126 10.6749
1 13.4929 27.6189 10.6749
1 13.4908 28.4048 9.89324
1 12.6913 27.5746 9.90247
1 14.2866 28.4126 10.6749
1 15.0803 27.6189 10.6749
1 15.0603 28.3866 9.85883
1 14.2846 27.6096 9.871
1 15.874 28.4126 10.6749
1 16.6677 27.6189 10.6749
1 16.6496 28.4097 9.90168
1 15.8912 27.6179 9.89716
1 17.4614 28.4126 10.6749
1 18.2551 27.6189 10.6749
1 18.2499 28.3897 9.87104
1 17.4756 27.6047 9.88788
1 19.0488 28.4126 10.6749
1 19.8425 27.6189 10.6749
1 19.8354 28.4121 9.88311
1 19.0681 27.6013 9.89276
1 20.6362 28.4126 10.6749
1 21.4299 27.6189 10.6749
1 21.4216 28.3893 9.86944
1 20.6258 27.5732 9.91147
1 22.2236 28.4126 10.6749
1 23.0173 27.6189 10.6749
1 22.9883 28.3547 9.87976
1 22.2148 27.5928 9.89518
1 23.811 28.4126 10.6749
1 24.6047 27.6189 10.6749
1 24.6243 28.409 9.85663
1 23.822 27.614 9.87835
1 25.3984 28.4126 10.6749
1 26.1921 27.6189 10.6749
1 26.1812 28.3969 9.89383
1 25.4211 27.6141 9.87116
1 26.9858 28.4126 10.6749
1 27.7795 27.6189 10.6749
1 27.7783 28.3984 9.89918
1 26.9714 27.6356 9.88486
1 28.5732 28.4126 10.6749
1 29.3669 27.6189 10.6749
1 29.2985 28.4008 9.82916
1 28.5415 27.6131 9.83046
1 30 26.8252 10.6749
1 0.793701 26.0315 10.6749
1 0.810464 26.8459 9.8689
1 0.0476865 26.0315 9.87197
1 1.5874 26.8252 10.6749
1 2.3811 26.0315 10.6749
1 2.35919 26.8504 9.87121
1 1.59066 26.0395 9.88351
1 3.1748 26.8252 10.6749
1 3.9685 26.0315 10.6749
1 3.97675 26.8218 9.91321
1 3.16962 26.0516 9.89906
1 4.7622 26.8252 10.6749
1 5.5559 26.0315 10.6749
1 5.5842 26.8206 9.88873
1 4.76336 26.006 9.88582
1 6.3496 26.8252 10.6749
1 7.1433 26.0315 10.6749
1 7.16241 26.8478 9.88129
1 6.34633 26.0292 9.84835
1 7.93701 26.8252 10.6749
1 8.73071 26.0315 10.6749
1 8.73452 26.8389 9.89472
1 7.9269 26.0566 9.90024
1 9.52441 26.8252 10.6749
1 10.3181 26.0315 10.6749
1 10.3665 26.8234 9.87673
1 9.5364 26.0518 9.9033
1 11.1118 26.8252 10.6749
1 11.9055 26.0315 10.6749
1 11.8996 26.8072 9.85501
1 11.129 26.0021 9.88334
1 12.6992 26.8252 10.6749
1 13.4929 26.0315 10.6749
1 13.4796 26.8257 9.9043
1 12.6919 26.0046 9.87994
1 14.2866 26.8252 10.6749
1 15.0803 26.0315 10.6749
1 15.0781 26.8329 9.90239
1 14.2902 26.0412 9.90087
1 15.874 26.8252 10.6749
1 16.6677 26.0315 10.6749
1 16.6867 26.8146 9.88645
1 15.8893 26.0144 9.86277
1 17.4614 26.8252 10.6749
1 18.2551 26.0315 10.6749
1 18.2777 26.7996 9.90639
1 17.4776 26.0143 9.88034
1 19.0488 26.8252 10.6749
1 19.8425 26.0315 10.6749
1 19.8496 26.8203 9.90705
1 19.0558 25.9773 9.90623
1 20.6362 26.8252 10.6749
1 21.4299 26.0315 10.6749
1 21.4315 26.7961 9.87418
1 20.6294 26.0337 9.91138
1 22.2236 26.8252 10.6749
1 23.0173 26.0315 10.6749
1 22.9993 26.815 9.9031
1 22.2383 26.016 9.8877
1 23.811 26.8252 10.6749
1 24.6047 26.0315 10.6749
1 24.6173 26.8079 9.88806
1 23.8321 26.0264 9.87013
1 25.3984 26.8252 10.6749
1 26.1921 26.0315 10.6749
1 26.175 26.8075 9.89177
1 25.4065 26.0304 9.9017
1 26.9858 26.8252 10.6749
1 27.7795 26.0315 10.6749
1 27.7681 26.7995 9.87765
1 26.9791 26.0357 9.89322
1 28.5732 26.8252 10.6749
1 29.3669 26.0315 10.6749
1 29.2894 26.8127 9.85586
1 28.5405 26.0278 9.86784
1 30 25.2378 10.6749
1 0.793701 24.4441 10.6749
1 0.817573 25.2531 9.88127
1 0.0732132 24.4334 9.83745
1 1.5874 25.2378 10.6749
1 2.3811 24.4441 10.6749
1 2.40155 25.241 9.8798
1 1.6306 24.4 9.89927
1 3.1748 25.2378 10.6749
1 3.9685 24.4441 10.6749
1 3.97932 25.2481 9.88413
1 3.18502 24.443 9.87763
1 4.7622 25.2378 10.6749
1 5.5559 24.4441 10.6749
1 5.56713 25.2465 9.87898
1 4.77498 24.4394 9.90949
1 6.3496 25.2378 10.6749
1 7.1433 24.4441 10.6749
1 7.1291 25.2448 9.9081
1 6.34721 24.4524 9.88678
1 7.93701 25.2378 10.6749
1 8.73071 24.4441 10.6749
1 8.74459 25.2571 9.88696
1 7.95639 24.4512 9.87919
1 9.52441 25.2378 10.6749
1 10.3181 24.4441 10.6749
1 10.327 25.2418 9.87495
1 9.53312 24.435 9.90527
1 11.1118 25.2378 10.6749
1 11.9055 24.4441 10.6749
1 11.9102 25.2056 9.87877
1 11.1298 24.4287 9.8869
1 12.6992 25.2378 10.6749
1 13.4929 24.4441 10.6749
1 13.5025 25.2344 9.89699
1 12.734 24.4386 9.89177
1 14.2866 25.2378 10.6749
1 15.0803 24.4441 10.6749
1 15.0686 25.2318 9.87442
1 14.2721 24.4161 9.87589
1 15.874 25.2378 10.6749
1 16.6677 24.4441 10.6749
1 16.6581 25.2449 9.90281
1 15.8573 24.4575 9.87736
1 17.4614 25.2378 10.6749
1 18.2551 24.4441 10.6749
1 18.2459 25.2389 9.89092
1 17.4531 24.4454 9.87875
1 19.0488 25.2378 10.6749
1 19.8425 24.4441 10.6749
1 19.8569 25.221 9.86788
1 19.0528 24.4347 9.88587
1 20.6362 25.2378 10.6749
1 21.4299 24.4441 10.6749
1 21.3834 25.2354 9.87399
1 20.6255 24.4355 9.88064
1 22.2236 25.2378 10.6749
1 23.0173 24.4441 10.6749
1 23.0165 25.2229 9.84951
1 22.2199 24.4388 9.89297
1 23.811 25.2378 10.6749
1 24.6047 24.4441 10.6749
1 24.5944 25.2475 9.86914
1 23.8174 24.4326 9.86508
1 25.3984 25.2378 10.6749
1 26.1921 24.4441 10.6749
1 26.2073 25.261 9.86779
1 25.4136 24.4558 9.86736
1 26.9858 25.2378 10.6749
1 27.7795 24.4441 10.6749
1 27.7558 25.2342 9.86409
1 26.9932 24.4638 9.84861
1 28.5732 25.2378 10.6749
1 29.3669 24.4441 10.6749
1 29.2919 25.2184 9.84762
1 28.5552 24.4282 9.87566
1 30 23.6504 10.6749
1 0.793701 22.8567 10.6749
1 0.820596 23.6428 9.89425
1 0.0801622 22.8558 9.88167
1 1.5874 23.6504 10.6749
1 2.3811 22.8567 10.6749
1 2.40179 23.6355 9.89265
1 1.59852 22.8695 9.87822
1 3.1748 23.6504 10.6749
1 3.9685 22.8567 10.6749
1 3.96352 23.653 9.87637
1 3.17245 22.849 9.89992
1 4.7622 23.6504 10.6749
1 5.5559 22.8567 10.6749
1 5.55534 23.664 9.8972
1 4.79265 22.8535 9.86193
1 6.3496 23.6504 10.6749
1 7.1433 22.8567 10.6749
1 7.12817 23.6458 9.87357
1 6.36726 22.8458 9.8835
1 7.93701 23.6504 10.6749
1 8.73071 22.8567 10.6749
1 8.72435 23.6459 9.89584
1 7.94971 22.856 9.87812
1 9.52441 23.6504 10.6749
1 10.3181 22.8567 10.6749
1 10.3247 23.6467 9.89663
1 9.51558 22.8847 9.87005
1 11.1118 23.6504 10.6749
1 11.9055 22.8567 10.6749
1 11.9247 23.6547 9.88649
1 11.1175 22.855 9.88161
1 12.6992 23.6504 10.6749
1 13.4929 22.8567 10.6749
1 13.4972 23.6466 9.87197
1 12.6915 22.854 9.87375
1 14.2866 23.6504 10.6749
1 15.0803 22.8567 10.6749
1 15.0639 23.6622 9.88812
1 14.2981 22.853 9.8651
1 15.874 23.6504 10.6749
1 16.6677 22.8567 10.6749
1 16.6909 23.6608 9.88715
1 15.8521 22.8725 9.88325
1 17.4614 23.6504 10.6749
1 18.2551 22.8567 10.6749
1 18.237 23.6357 9.87099
1 17.4487 22.8392 9.89331
1 19.0488 23.6504 10.6749
1 19.8425 22.8567 10.6749
1 19.8211 23.6419 9.87737
1 19.0516 22.8461 9.86752
1 20.6362 23.6504 10.6749
1 21.4299 22.8567 10.6749
1 21.4268 23.6492 9.86873
1 20.622 22.8472 9.89999
1 22.2236 23.6504 10.6749
1 23.0173 22.8567 10.6749
1 23.0427 23.6455 9.86317
1 22.191 22.858 9.87015
1 23.811 23.6504 10.6749
1 24.6047 22.8567 10.6749
1 24.592 23.6508 9.89091
1 23.815 22.851 9.86386
1 25.3984 23.6504 10.6749
1 26.1921 22.8567 10.6749
1 26.2071 23.6663 9.87309
1 25.4103 22.8592 9.9113
1 26.9858 23.6504 10.6749
1 27.7795 22.8567 10.6749
1 27.7628 23.6632 9.84921
1 26.9665 22.8575 9.89548
1 28.5732 23.6504 10.6749
1 29.3669 22.8567 10.6749
1 29.2964 23.642 9.84973
1 28.5705 22.855 9.8855
1 30 22.063 10.6749
1 0.793701 21.2693 10.6749
1 0.818201 22.0364 9.87538
1 0.056724 21.2689 9.83581
1 1.5874 22.063 10.6749
1 2.3811 21.2693 10.6749
1 2.36997 22.0678 9.91543
1 1.60102 21.264 9.8735
1 3.1748 22.063 10.6749
1 3.9685 21.2693 10.6749
1 3.96041 22.0855 9.89936
1 3.17753 21.2726 9.88361
1 4.7622 22.063 10.6749
1 5.5559 21.2693 10.6749
1 5.56413 22.0702 9.88975
1 4.77536 21.2736 9.87481
1 6.3496 22.063 10.6749
1 7.1433 21.2693 10.6749
1 7.1372 22.0444 9.89526
1 6.32554 21.2617 9.89993
1 7.93701 22.063 10.6749
1 8.73071 21.2693 10.6749
1 8.77119 22.0712 9.89157
1 7.95692 21.2587 9.87774
1 9.52441 22.063 10.6749
1 10.3181 21.2693 10.6749
1 10.3102 22.0415 9.88087
1 9.5316 21.251 9.87426
1 11.1118 22.063 10.6749
1 11.9055 21.2693 10.6749
1 11.8903 22.0784 9.86797
1 11.1064 21.2517 9.86384
1 12.6992 22.063 10.6749
1 13.4929 21.2693 10.6749
1 13.4961 22.0763 9.88163
1 12.6847 21.2579 9.88574
1 14.2866 22.063 10.6749
1 15.0803 21.2693 10.6749
1 15.0742 22.0497 9.87149
1 14.2805 21.2774 9.8836
1 15.874 22.063 10.6749
1 16.6677 21.2693 10.6749
1 16.6669 22.0613 9.87922
1 15.8685 21.2722 9.88362
1 17.4614 22.063 10.6749
1 18.2551 21.2693 10.6749
1 18.2448 22.0665 9.9032
1 17.4812 21.2843 9.88214
1 19.0488 22.063 10.6749
1 19.8425 21.2693 10.6749
1 19.8348 22.043 9.87372
1 19.0155 21.238 9.88938
1 20.6362 22.063 10.6749
1 21.4299 21.2693 10.6749
1 21.4297 22.0784 9.86334
1 20.6205 21.2675 9.90013
1 22.2236 22.063 10.6749
1 23.0173 21.2693 10.6749
1 23.0056 22.0839 9.89517
1 22.2217 21.2488 9.87706
1 23.811 22.063 10.6749
1 24.6047 21.2693 10.6749
1 24.6007 22.0435 9.90491
1 23.8132 21.2909 9.8873
1 25.3984 22.063 10.6749
1 26.1921 21.2693 10.6749
1 26.1919 22.0427 9.87588
1 25.3919 21.2831 9.87204
1 26.9858 22.063 10.6749
1 27.7795 21.2693 10.6749
1 27.7733 22.0666 9.87152
1 26.9579 21.2422 9.89073
1 28.5732 22.063 10.6749
1 29.3669 21.2693 10.6749
1 29.2987 22.0571 9.84053
1 28.5417 21.2631 9.89158
1 30 20.4756 10.6749
1 0.793701 19.6819 10.6749
1 0.823806 20.4972 9.87307
1 0.0786609 19.686 9.84273
1 1.5874 20.4756 10.6749
1 2.3811 19.6819 10.6749
1 2.37875 20.4503 9.88401
1 1.59997 19.6985 9.88854
1 3.1748 20.4756 10.6749
1 3.9685 19.6819 10.6749
1 3.97936 20.4541 9.89806
1 3.18786 19.6589 9.88578
1 4.7622 20.4756 10.6749
1 5.5559 19.6819 10.6749
1 5.55043 20.4668 9.87832
1 4.79533 19.67 9.90673
1 6.3496 20.4756 10.6749
1 7.1433 19.6819 10.6749
1 7.14373 20.4691 9.90016
1 6.35996 19.6926 9.88415
1 7.93701 20.4756 10.6749
1 8.73071 19.6819 10.6749
1 8.75451 20.4622 9.88147
1 7.95189 19.6895 9.86657
1 9.52441 20.4756 10.6749
1 10.3181 19.6819 10.6749
1 10.3263 20.468 9.8741
1 9.51697 19.6755 9.88762
1 11.1118 20.4756 10.6749
1 11.9055 19.6819 10.6749
1 11.9041 20.4747 9.88803
1 11.1201 19.6749 9.88003
1 12.6992 20.4756 10.6749
1 13.4929 19.6819 10.6749
1 13.4887 20.4777 9.87242
1 12.6968 19.7043 9.87827
1 14.2866 20.4756 10.6749
1 15.0803 19.6819 10.6749
1 15.0881 20.4968 9.8776
1 14.2676 19.7014 9.88088
1 15.874 20.4756 10.6749
1 16.6677 19.6819 10.6749
1 16.6733 20.4741 9.85932
1 15.8583 19.6846 9.88915
1 17.4614 20.4756 10.6749
1 18.2551 19.6819 10.6749
1 18.2485 20.4525 9.8936
1 17.4627 19.659 9.87052
1 19.0488 20.4756 10.6749
1 19.8425 19.6819 10.6749
1 19.8517 20.4748 9.8882
1 19.065 19.6862 9.86978
1 20.6362 20.4756 10.6749
1 21.4299 19.6819 10.6749
1 21.4224 20.4759 9.89219
1 20.6288 19.6741 9.87994
1 22.2236 20.4756 10.6749
1 23.0173 19.6819 10.6749
1 23.0138 20.4686 9.87118
1 22.2016 19.7078 9.88088
1 23.811 20.4756 10.6749
1 24.6047 19.6819 10.6749
1 24.5846 20.4789 9.89442
1 23.8048 19.7002 9.86855
1 25.3984 20.4756 10.6749
1 26.1921 19.6819 10.6749
1 26.1814 20.4737 9.8785
1 25.3934 19.6933 9.87612
1 26.9858 20.4756 10.6749
1 27.7795 19.6819 10.6749
1 27.7575 20.4726 9.87745
1 26.9607 19.6629 9.89262
1 28.5732 20.4756 10.6749
1 29.3669 19.6819 10.6749
1 29.2972 20.4817 9.84476
1 28.5378 19.6905 9.87011
1 30 18.8882 10.6749
1 0.793701 18.0945 10.6749
1 0.845596 18.8842 9.86292
1 0.0640448 18.0932 9.85771
1 1.5874 18.8882 10.6749
1 2.3811 18.0945 10.6749
1 2.36385 18.8853 9.87502
1 1.6033 18.1064 9.87286
1 3.1748 18.8882 10.6749
1 3.9685 18.0945 10.6749
1 3.98828 18.8943 9.88759
1 3.19339 18.1215 9.89955
1 4.7622 18.8882 10.6749
1 5.5559 18.0945 10.6749
1 5.56662 18.8741 9.90024
1 4.78997 18.0945 9.87235
1 6.3496 18.8882 10.6749
1 7.1433 18.0945 10.6749
1 7.13672 18.9115 9.87406
1 6.35781 18.1098 9.87684
1 7.93701 18.8882 10.6749
1 8.73071 18.0945 10.6749
1 8.74884 18.8871 9.88642
1 7.96274 18.1157 9.87868
1 9.52441 18.8882 10.6749
1 10.3181 18.0945 10.6749
1 10.3028 18.8995 9.89939
1 9.53013 18.0739 9.87109
1 11.1118 18.8882 10.6749
1 11.9055 18.0945 10.6749
1 11.9088 18.8803 9.89186
1 11.1331 18.1153 9.87604
1 12.6992 18.8882 10.6749
1 13.4929 18.0945 10.6749
1 13.5003 18.8809 9.88815
1 12.6969 18.0961 9.89225
1 14.2866 18.8882 10.6749
1 15.0803 18.0945 10.6749
1 15.1067 18.8944 9.84236
1 14.2857 18.1037 9.89177
1 15.874 18.8882 10.6749
1 16.6677 18.0945 10.6749
1 16.6734 18.8789 9.87478
1 15.8714 18.0812 9.8533
1 17.4614 18.8882 10.6749
1 18.2551 18.0945 10.6749
1 18.2655 18.8811 9.87198
1 17.4627 18.0975 9.85442
1 19.0488 18.8882 10.6749
1 19.8425 18.0945 10.6749
1 19.8399 18.8979 9.88414
1 19.0575 18.1178 9.87751
1 20.6362 18.8882 10.6749
1 21.4299 18.0945 10.6749
1 21.4269 18.8943 9.89475
1 20.6559 18.0973 9.89218
1 22.2236 18.8882 10.6749
1 23.0173 18.0945 10.6749
1 22.9911 18.8713 9.8702
1 22.1816 18.0803 9.87832
1 23.811 18.8882 10.6749
1 24.6047 18.0945 10.6749
1 24.6053 18.8933 9.86153
1 23.7894 18.0873 9.87428
1 25.3984 18.8882 10.6749
1 26.1921 18.0945 10.6749
1 26.192 18.9052 9.8883
1 25.3941 18.0814 9.88062
1 26.9858 18.8882 10.6749
1 27.7795 18.0945 10.6749
1 27.7553 18.8868 9.86596
1 26.9675 18.0954 9.88865
1 28.5732 18.8882 10.6749
1 29.3669 18.0945 10.6749
1 29.311 18.8991 9.85328
1 28.5633 18.1254 9.86834
1 30 17.3008 10.6749
1 0.793701 16.5071 10.6749
1 0.821535 17.324 9.87081
1 0.0626876 16.5224 9.84016
1 1.5874 17.3008 10.6749
1 2.3811 16.5071 10.6749
1 2.4183 17.3222 9.87368
1 1.61989 16.5273 9.89915
1 3.1748 17.3008 10.6749
1 3.9685 16.5071 10.6749
1 3.96259 17.3054 9.88424
1 3.18662 16.4936 9.87456
1 4.7622 17.3008 10.6749
1 5.5559 16.5071 10.6749
1 5.56534 17.312 9.90185
1 4.75598 16.5088 9.89069
1 6.3496 17.3008 10.6749
1 7.1433 16.5071 10.6749
1 7.15795 17.3251 9.88762
1 6.35315 16.5179 9.87742
1 7.93701 17.3008 10.6749
1 8.73071 16.5071 10.6749
1 8.71465 17.3038 9.88641
1 7.93444 16.5215 9.89207
1 9.52441 17.3008 10.6749
1 10.3181 16.5071 10.6749
1 10.3169 17.3271 9.87628
1 9.53991 16.5331 9.87717
1 11.1118 17.3008 10.6749
1 11.9055 16.5071 10.6749
1 11.9154 17.309 9.88922
1 11.1004 16.5308 9.89284
1 12.6992 17.3008 10.6749
1 13.4929 16.5071 10.6749
1 13.4957 17.2947 9.8816
1 12.6982 16.516 9.88205
1 14.2866 17.3008 10.6749
1 15.0803 16.5071 10.6749
1 15.0838 17.3214 9.89411
1 14.3057 16.5024 9.89866
1 15.874 17.3008 10.6749
1 16.6677 16.5071 10.6749
1 16.6652 17.3115 9.88381
1 15.8802 16.4869 9.873
1 17.4614 17.3008 10.6749
1 18.2551 16.5071 10.6749
1 18.2595 17.2816 9.89556
1 17.4442 16.5128 9.8759
1 19.0488 17.3008 10.6749
1 19.8425 16.5071 10.6749
1 19.8351 17.2984 9.87757
1 19.0482 16.4887 9.88734
1 20.6362 17.3008 10.6749
1 21.4299 16.5071 10.6749
1 21.4094 17.3052 9.86785
1 20.637 16.5141 9.87267
1 22.2236 17.3008 10.6749
1 23.0173 16.5071 10.6749
1 23.0054 17.2847 9.88983
1 22.2219 16.5252 9.90398
1 23.811 17.3008 10.6749
1 24.6047 16.5071 10.6749
1 24.5772 17.3022 9.90875
1 23.808 16.4906 9.87578
1 25.3984 17.3008 10.6749
1 26.1921 16.5071 10.6749
1 26.2095 17.2701 9.8784
1 25.3823 16.5069 9.87219
1 26.9858 17.3008 10.6749
1 27.7795 16.5071 10.6749
1 27.7808 17.3187 9.88478
1 27.0276 16.4814 9.88464
1 28.5732 17.3008 10.6749
1 29.3669 16.5071 10.6749
1 29.3123 17.3039 9.86003
1 28.5243 16.5113 9.87663
1 30 15.7134 10.6749
1 0.793701 14.9197 10.6749
1 0.816084 15.7293 9.87209
1 0.0685788 14.9472 9.86077
1 1.5874 15.7134 10.6749
1 2.3811 14.9197 10.6749
1 2.38519 15.7353 9.89353
1 1.61093 14.9365 9.85966
1 3.1748 15.7134 10.6749
1 3.9685 14.9197 10.6749
1 3.99024 15.7128 9.88065
1 3.20175 14.9324 9.89004
1 4.7622 15.7134 10.6749
1 5.5559 14.9197 10.6749
1 5.57252 15.697 9.87402
1 4.76169 14.8965 9.91948
1 6.3496 15.7134 10.6749
1 7.1433 14.9197 10.6749
1 7.13076 15.7253 9.89056
1 6.35617 14.9116 9.86384
1 7.93701 15.7134 10.6749
1 8.73071 14.9197 10.6749
1 8.71535 15.7117 9.86815
1 7.94564 14.9019 9.87117
1 9.52441 15.7134 10.6749
1 10.3181 14.9197 10.6749
1 10.3136 15.7298 9.86655
1 9.5223 14.9126 9.87086
1 11.1118 15.7134 10.6749
1 11.9055 14.9197 10.6749
1 11.8843 15.7202 9.88992
1 11.1283 14.9177 9.87517
1 12.6992 15.7134 10.6749
1 13.4929 14.9197 10.6749
1 13.4843 15.7121 9.89141
1 12.7058 14.9096 9.90399
1 14.2866 15.7134 10.6749
1 15.0803 14.9197 10.6749
1 15.0857 15.6741 9.86802
1 14.2922 14.8891 9.87693
1 15.874 15.7134 10.6749
1 16.6677 14.9197 10.6749
1 16.6721 15.7016 9.89846
1 15.8778 14.9379 9.88334
1 17.4614 15.7134 10.6749
1 18.2551 14.9197 10.6749
1 18.281 15.7291 9.88175
1 17.4738 14.9339 9.89203
1 19.0488 15.7134 10.6749
1 19.8425 14.9197 10.6749
1 19.8563 15.7313 9.8799
1 19.066 14.9056 9.91141
1 20.6362 15.7134 10.6749
1 21.4299 14.9197 10.6749
1 21.4277 15.7211 9.89721
1 20.626 14.9366 9.90319
1 22.2236 15.7134 10.6749
1 23.0173 14.9197 10.6749
1 23.0142 15.7135 9.86707
1 22.2204 14.9099 9.86865
1 23.811 15.7134 10.6749
1 24.6047 14.9197 10.6749
1 24.593 15.687 9.88455
1 23.8006 14.8896 9.8858
1 25.3984 15.7134 10.6749
1 26.1921 14.9197 10.6749
1 26.1813 15.7103 9.88885
1 25.3967 14.9129 9.85961
1 26.9858 15.7134 10.6749
1 27.7795 14.9197 10.6749
1 27.7707 15.6736 9.85331
1 26.9903 14.892 9.87719
1 28.5732 15.7134 10.6749
1 29.3669 14.9197 10.6749
1 29.2959 15.7157 9.83465
1 28.579 14.9107 9.86537
1 30 14.126 10.6749
1 0.793701 13.3323 10.6749
1 0.829589 14.132 9.85536
1 0.0742033 13.3495 9.86734
1 1.5874 14.126 10.6749
1 2.3811 13.3323 10.6749
1 2.39091 14.1363 9.87717
1 1.60131 13.3618 9.87769
1 3.1748 14.126 10.6749
1 3.9685 13.3323 10.6749
1 3.96789 14.1249 9.88367
1 3.18068 13.3336 9.89714
1 4.7622 14.126 10.6749
1 5.5559 13.3323 10.6749
1 5.56418 14.1072 9.88218
1 4.76804 13.3613 9.8616
1 6.3496 14.126 10.6749
1 7.1433 13.3323 10.6749
1 7.14778 14.1165 9.8801
1 6.35462 13.3266 9.88014
1 7.93701 14.126 10.6749
1 8.73071 13.3323 10.6749
1 8.73 14.1192 9.88139
1 7.92424 13.337 9.85257
1 9.52441 14.126 10.6749
1 10.3181 13.3323 10.6749
1 10.3209 14.117 9.87054
1 9.51862 13.3356 9.90926
1 11.1118 14.126 10.6749
1 11.9055 13.3323 10.6749
1 11.9326 14.131 9.88063
1 11.1261 13.3335 9.88035
1 12.6992 14.126 10.6749
1 13.4929 13.3323 10.6749
1 13.4651 14.1296 9.87371
1 12.6982 13.3202 9.88784
1 14.2866 14.126 10.6749
1 15.0803 13.3323 10.6749
1 15.1076 14.1284 9.87299
1 14.3082 13.3391 9.88773
1 15.874 14.126 10.6749
1 16.6677 13.3323 10.6749
1 16.6684 14.1224 9.87589
1 15.8723 13.3546 9.86823
1 17.4614 14.126 10.6749
1 18.2551 13.3323 10.6749
1 18.2504 14.1285 9.87852
1 17.4439 13.3316 9.89169
1 19.0488 14.126 10.6749
1 19.8425 13.3323 10.6749
1 19.8364 14.1243 9.89309
1 19.0521 13.3266 9.8857
1 20.6362 14.126 10.6749
1 21.4299 13.3323 10.6749
1 21.4229 14.1466 9.86401
1 20.6385 13.3223 9.88298
1 22.2236 14.126 10.6749
1 23.0173 13.3323 10.6749
1 23.0119 14.1373 9.89156
1 22.212 13.3422 9.8649
1 23.811 14.126 10.6749
1 24.6047 13.3323 10.6749
1 24.6254 14.1073 9.87203
1 23.7922 13.3439 9.85551
1 25.3984 14.126 10.6749
1 26.1921 13.3323 10.6749
1 26.1885 14.1244 9.88576
1 25.3684 13.3279 9.86915
1 26.9858 14.126 10.6749
1 27.7795 13.3323 10.6749
1 27.7767 14.1197 9.86829
1 26.9589 13.3245 9.87865
1 28.5732 14.126 10.6749
1 29.3669 13.3323 10.6749
1 29.3043 14.1293 9.86395
1 28.5363 13.308 9.86301
1 30 12.5386 10.6749
1 0.793701 11.7449 10.6749
1 0.840659 12.5406 9.87917
1 0.0717819 11.7711 9.85009
1 1.5874 12.5386 10.6749
1 2.3811 11.7449 10.6749
1 2.39707 12.5259 9.87134
1 1.59744 11.7468 9.87784
1 3.1748 12.5386 10.6749
1 3.9685 11.7449 10.6749
1 3.99481 12.5368 9.88134
1 3.20907 11.7335 9.8672
1 4.7622 12.5386 10.6749
1 5.5559 11.7449 10.6749
1 5.51953 12.5269 9.869
1 4.76696 11.7303 9.88159
1 6.3496 12.5386 10.6749
1 7.1433 11.7449 10.6749
1 7.14613 12.5124 9.88238
1 6.3474 11.732 9.87886
1 7.93701 12.5386 10.6749
1 8.73071 11.7449 10.6749
1 8.76237 12.5461 9.87042
1 7.94791 11.7361 9.88374
1 9.52441 12.5386 10.6749
1 10.3181 11.7449 10.6749
1 10.315 12.5265 9.87488
1 9.52095 11.7389 9.88299
1 11.1118 12.5386 10.6749
1 11.9055 11.7449 10.6749
1 11.8962 12.5323 9.9092
1 11.121 11.7514 9.89305
1 12.6992 12.5386 10.6749
1 13.4929 11.7449 10.6749
1 13.5027 12.5291 9.88424
1 12.7086 11.7436 9.88989
1 14.2866 12.5386 10.6749
1 15.0803 11.7449 10.6749
1 15.0813 12.538 9.88868
1 14.2891 11.7128 9.87363
1 15.874 12.5386 10.6749
1 16.6677 11.7449 10.6749
1 16.6648 12.5426 9.88255
1 15.8747 11.7305 9.8884
1 17.4614 12.5386 10.6749
1 18.2551 11.7449 10.6749
1 18.2731 12.5341 9.88042
1 17.4669 11.743 9.88363
1 19.0488 12.5386 10.6749
1 19.8425 11.7449 10.6749
1 19.8629 12.5261 9.86673
1 19.0556 11.7394 9.8881
1 20.6362 12.5386 10.6749
1 21.4299 11.7449 10.6749
1 21.4287 12.5108 9.88122
1 20.6418 11.7343 9.87307
1 22.2236 12.5386 10.6749
1 23.0173 11.7449 10.6749
1 22.9888 12.5395 9.86463
1 22.2406 11.7432 9.87129
1 23.811 12.5386 10.6749
1 24.6047 11.7449 10.6749
1 24.551 12.5396 9.87509
1 23.8063 11.7526 9.85495
1 25.3984 12.5386 10.6749
1 26.1921 11.7449 10.6749
1 26.1524 12.5351 9.87372
1 25.3804 11.7675 9.87682
1 26.9858 12.5386 10.6749
1 27.7795 11.7449 10.6749
1 27.76 12.5345 9.87148
1 26.9763 11.7471 9.88844
1 28.5732 12.5386 10.6749
1 29.3669 11.7449 10.6749
1 29.3037 12.5459 9.83349
1 28.5469 11.7732 9.87533
1 30 10.9512 10.6749
1 0.793701 10.1575 10.6749
1 0.811977 10.9289 9.87543
1 0.0382501 10.1337 9.8612
1 1.5874 10.9512 10.6749
1 2.3811 10.1575 10.6749
1 2.36276 10.9499 9.87886
1 1.59762 10.169 9.8733
1 3.1748 10.9512 10.6749
1 3.9685 10.1575 10.6749
1 3.99134 10.9045 9.87291
1 3.17273 10.1387 9.8604
1 4.7622 10.9512 10.6749
1 5.5559 10.1575 10.6749
1 5.56886 10.9335 9.86894
1 4.77506 10.1564 9.88158
1 6.3496 10.9512 10.6749
1 7.1433 10.1575 10.6749
1 7.15072 10.9313 9.88468
1 6.34333 10.1687 9.89627
1 7.93701 10.9512 10.6749
1 8.73071 10.1575 10.6749
1 8.73069 10.9458 9.88432
1 7.93538 10.142 9.86347
1 9.52441 10.9512 10.6749
1 10.3181 10.1575 10.6749
1 10.3125 10.9502 9.89409
1 9.52165 10.1532 9.87579
1 11.1118 10.9512 10.6749
1 11.9055 10.1575 10.6749
1 11.907 10.9465 9.87887
1 11.1301 10.1721 9.86673
1 12.6992 10.9512 10.6749
1 13.4929 10.1575 10.6749
1 13.4762 10.9364 9.87333
1 12.6902 10.1355 9.86143
1 14.2866 10.9512 10.6749
1 15.0803 10.1575 10.6749
1 15.0672 10.9447 9.87472
1 14.2691 10.1539 9.85714
1 15.874 10.9512 10.6749
1 16.6677 10.1575 10.6749
1 16.68 10.9577 9.89411
1 15.8732 10.1471 9.88666
1 17.4614 10.9512 10.6749
1 18.2551 10.1575 10.6749
1 18.2496 10.9458 9.87695
1 17.4836 10.1342 9.8515
1 19.0488 10.9512 10.6749
1 19.8425 10.1575 10.6749
1 19.827 10.9441 9.88764
1 19.0424 10.1597 9.88149
1 20.6362 10.9512 10.6749
1 21.4299 10.1575 10.6749
1 21.4404 10.9532 9.88884
1 20.6464 10.1733 9.87984
1 22.2236 10.9512 10.6749
1 23.0173 10.1575 10.6749
1 23.0346 10.967 9.86928
1 22.2338 10.1711 9.86878
1 23.811 10.9512 10.6749
1 24.6047 10.1575 10.6749
1 24.5918 10.9478 9.879
1 23.8 10.171 9.86828
1 25.3984 10.9512 10.6749
1 26.1921 10.1575 10.6749
1 26.191 10.9729 9.9229
1 25.4035 10.1842 9.88327
1 26.9858 10.9512 10.6749
1 27.7795 10.1575 10.6749
1 27.7727 10.9528 9.89434
1 26.9805 10.1711 9.86275
1 28.5732 10.9512 10.6749
1 29.3669 10.1575 10.6749
1 29.3144 10.9565 9.84939
1 28.5586 10.1545 9.88452
1 30 9.36379 10.6749
1 0.793701 8.57009 10.6749
1 0.83347 9.36705 9.88104
1 0.0773199 8.54687 9.88227
1 1.5874 9.36379 10.6749
1 2.3811 8.57009 10.6749
1 2.38489 9.3524 9.84808
1 1.59082 8.56093 9.85691
1 3.1748 9.36379 10.6749
1 3.9685 8.57009 10.6749
1 3.96184 9.37115 9.85209
1 3.17797 8.57531 9.87015
1 4.7622 9.36379 10.6749
1 5.5559 8.57009 10.6749
1 5.54842 9.3673 9.88753
1 4.75989 8.56658 9.87844
1 6.3496 9.36379 10.6749
1 7.1433 8.57009 10.6749
1 7.12426 9.357 9.87937
1 6.36333 8.57516 9.8921
1 7.93701 9.36379 10.6749
1 8.73071 8.57009 10.6749
1 8.71376 9.35439 9.8885
1 7.92277 8.5817 9.87635
1 9.52441 9.36379 10.6749
1 10.3181 8.57009 10.6749
1 10.3075 9.34083 9.90286
1 9.49088 8.56219 9.86661
1 11.1118 9.36379 10.6749
1 11.9055 8.57009 10.6749
1 11.896 9.3685 9.87498
1 11.1118 8.56821 9.88571
1 12.6992 9.36379 10.6749
1 13.4929 8.57009 10.6749
1 13.4834 9.36071 9.8767
1 12.6766 8.57825 9.89133
1 14.2866 9.36379 10.6749
1 15.0803 8.57009 10.6749
1 15.0626 9.33078 9.88641
1 14.2707 8.58924 9.88747
1 15.874 9.36379 10.6749
1 16.6677 8.57009 10.6749
1 16.6817 9.35703 9.87512
1 15.8688 8.5685 9.89253
1 17.4614 9.36379 10.6749
1 18.2551 8.57009 10.6749
1 18.263 9.36768 9.88332
1 17.4534 8.57819 9.88556
1 19.0488 9.36379 10.6749
1 19.8425 8.57009 10.6749
1 19.8787 9.36776 9.88423
1 19.067 8.59527 9.86503
1 20.6362 9.36379 10.6749
1 21.4299 8.57009 10.6749
1 21.4271 9.36805 9.86074
1 20.6498 8.57378 9.90568
1 22.2236 9.36379 10.6749
1 23.0173 8.57009 10.6749
1 23.0037 9.3756 9.88737
1 22.2214 8.56336 9.88164
1 23.811 9.36379 10.6749
1 24.6047 8.57009 10.6749
1 24.594 9.36904 9.88917
1 23.804 8.57904 9.90308
1 25.3984 9.36379 10.6749
1 26.1921 8.57009 10.6749
1 26.1726 9.38772 9.8787
1 25.3742 8.57458 9.87132
1 26.9858 9.36379 10.6749
1 27.7795 8.57009 10.6749
1 27.7582 9.38018 9.87939
1 26.9636 8.56145 9.8933
1 28.5732 9.36379 10.6749
1 29.3669 8.57009 10.6749
1 29.315 9.34883 9.86208
1 28.5186 8.58531 9.89505
1 30 7.77639 10.6749
1 0.793701 6.98268 10.6749
1 0.813033 7.77143 9.86312
1 0.067811 6.97446 9.84528
1 1.5874 7.77639 10.6749
1 2.3811 6.98268 10.6749
1 2.40422 7.76781 9.88707
1 1.59185 7.0208 9.88639
1 3.1748 7.77639 10.6749
1 3.9685 6.98268 10.6749
1 3.97901 7.75466 9.87177
1 3.18919 7.00066 9.86502
1 4.7622 7.77639 10.6749
1 5.5559 6.98268 10.6749
1 5.55729 7.76496 9.8911
1 4.7689 6.98411 9.84682
1 6.3496 7.77639 10.6749
1 7.1433 6.98268 10.6749
1 7.17064 7.76157 9.86995
1 6.34202 6.98604 9.8814
1 7.93701 7.77639 10.6749
1 8.73071 6.98268 10.6749
1 8.73351 7.76891 9.85882
1 7.93239 6.97096 9.88861
1 9.52441 7.77639 10.6749
1 10.3181 6.98268 10.6749
1 10.3109 7.79973 9.89613
1 9.51956 6.98602 9.88244
1 11.1118 7.77639 10.6749
1 11.9055 6.98268 10.6749
1 11.9099 7.77738 9.89696
1 11.1168 6.97961 9.90751
1 12.6992 7.77639 10.6749
1 13.4929 6.98268 10.6749
1 13.4783 7.79167 9.8935
1 12.6771 6.98813 9.85369
1 14.2866 7.77639 10.6749
1 15.0803 6.98268 10.6749
1 15.0694 7.75478 9.87959
1 14.2555 6.94972 9.88798
1 15.874 7.77639 10.6749
1 16.6677 6.98268 10.6749
1 16.6841 7.77357 9.86186
1 15.8739 6.97345 9.87354
1 17.4614 7.77639 10.6749
1 18.2551 6.98268 10.6749
1 18.2645 7.80059 9.87924
1 17.4815 6.99924 9.87131
1 19.0488 7.77639 10.6749
1 19.8425 6.98268 10.6749
1 19.8568 7.7978 9.8866
1 19.0508 6.99043 9.90094
1 20.6362 7.77639 10.6749
1 21.4299 6.98268 10.6749
1 21.424 7.76116 9.898
1 20.636 6.99791 9.89828
1 22.2236 7.77639 10.6749
1 23.0173 6.98268 10.6749
1 23.0201 7.7692 9.8883
1 22.2419 7.00308 9.8645
1 23.811 7.77639 10.6749
1 24.6047 6.98268 10.6749
1 24.5928 7.78619 9.86251
1 23.8292 6.96605 9.89156
1 25.3984 7.77639 10.6749
1 26.1921 6.98268 10.6749
1 26.1976 7.81065 9.89575
1 25.3963 6.99003 9.89315
1 26.9858 7.77639 10.6749
1 27.7795 6.98268 10.6749
1 27.7564 7.764 9.87638
1 26.9334 6.96653 9.87545
1 28.5732 7.77639 10.6749
1 29.3669 6.98268 10.6749
1 29.2995 7.78514 9.86032
1 28.5575 6.99082 9.8703
1 30 6.18898 10.6749
1 0.793701 5.39528 10.6749
1 0.836972 6.20921 9.88447
1 0.0743606 5.41803 9.85928
1 1.5874 6.18898 10.6749
1 2.3811 5.39528 10.6749
1 2.3932 6.16556 9.87333
1 1.58396 5.39484 9.89859
1 3.1748 6.18898 10.6749
1 3.9685 5.39528 10.6749
1 4.0021 6.19681 9.88222
1 3.19872 5.4041 9.89166
1 4.7622 6.18898 10.6749
1 5.5559 5.39528 10.6749
1 5.54807 6.17342 9.86905
1 4.74323 5.39386 9.88921
1 6.3496 6.18898 10.6749
1 7.1433 5.39528 10.6749
1 7.15352 6.18944 9.86155
1 6.36373 5.39237 9.88908
1 7.93701 6.18898 10.6749
1 8.73071 5.39528 10.6749
1 8.70129 6.19668 9.89684
1 7.91702 5.42571 9.89366
1 9.52441 6.18898 10.6749
1 10.3181 5.39528 10.6749