LAMMPS (5 Jun 2019)
OMP_NUM_THREADS environment is not set. Defaulting to 1 thread. (src/comm.cpp:88)
  using 1 OpenMP thread(s) per MPI task
#--- Brush Variables---#
variable      f      equal  0.5
variable      M      equal  $(v_f * 20)                 # The number of polymer chains on each brush
variable      M      equal  10                 
variable      N      string 30                 # The number of beads per chain
variable      xhi    equal  $(sqrt(v_f) * 20)                 # The width of the polymer Brush
variable      xhi    equal  14.142135623730951011                 
variable      yhi    equal  $(sqrt(v_f) * 20)                 # The length of the polymer Brush
variable      yhi    equal  14.142135623730951011                 
variable      wthick equal  3                  # The thickness of the walls wthick=1,2,3,4 gives 2,3,4,6 layers respectively

#--- Simulation Variables ---#
variable       Temp      index 1        #0.8 1 1.68                 #[Grest96]
variable       Tstep     equal 0.005                       # Timestep in Tau (default = 0.005)
variable       Nequil    equal 300000                       # Number of timesteps to equilibrate
variable       Ncomp     equal 700000                     # Number of timesteps to compress - until no more occilation of walls
variable       Nshear    equal 4000000      #2000000                      # Number of timesteps to shear - use approx 4ns for 10m/s
variable       Nthermo   equal 1000                        # Number of timesteps between thermo data prints
variable       Ndump_e   equal 10000
variable       Ndump_c   equal 10000                      # Number of timesteps per dump file (compression)
variable       Ndump_s   equal 10000                       # Number of timesteps per dump file (shear)
variable       Wall_v    index 0.5   #0.001 0.01 0.1 0.2 0.4 0.6 0.8 1 1.2 1.4 1.6 1.8 2   # 0.005 0.05 0.1 0.5 1.5 0.001 0.003 0.2 0.0002 2                      # Wall velocity (A/fs) - equal to 10 m/s
variable       Pcomp     index 1 0.5 2 0.05 4 8

include        MDPBB.in
# This is an input script that creates a mono disperse polymer brush bilayer
# A coarse grained bead-spring model is used for the polymers which are end
# grafted to the surfaces of 2 opposing FCC walls at random sites.

#--- Initialization ---#

dimension     3
boundary      p p f
units         lj
atom_style    bond


#--- Moved to main.in ---#
#variable      M      equal  50                # The number of polymer chains on each brush
#variable      N      string 80                # The number of beads per chain
#variable      xhi    equal  15                # The width of the polymer Brush
#variable      yhi    equal  20                # The length of the polymer Brush
#variable      wthick equal  3                 # The thickness of the walls wthick=1,2,3,4 gives 2,3,4,6 layers respectively

variable      zhi    equal  $(1.1 * 2 * v_N + (2 * v_wthick))  # The initial height of the simulation box the value is such that no overlaps occur
variable      zhi    equal  72  
variable      z0     equal  $((v_zhi)/4 - (v_N)/30)          # This is the location at which to place the CoM of the molecule
variable      z0     equal  17          

print "The number of grafted chains = $(v_M)"
The number of grafted chains = 10
print "The number of beads per chain = $(v_N)"
The number of beads per chain = 30

variable      check  equal count(all)         # The number of atoms in the system
variable      ntwall equal count(twall)       # The number of atoms in the top wall
variable      nbwall equal count(bwall)       # The number of atoms in the bottom wall
variable      s equal 234897  #45335              # Seed for the RNG

print "zhi = ${zhi}"
zhi = 72

#--- Create the simulation box ---#

region        sbox block 0 ${xhi} 0 ${yhi} 0 ${zhi}
region        sbox block 0 14.142135623731 0 ${yhi} 0 ${zhi}
region        sbox block 0 14.142135623731 0 14.142135623731 0 ${zhi}
region        sbox block 0 14.142135623731 0 14.142135623731 0 72
create_box    4 sbox bond/types 3 extra/bond/per/atom 12 extra/special/per/atom 2
Created orthogonal box = (0 0 0) to (14.1421 14.1421 72)
  1 by 1 by 1 MPI processor grid

mass          1 2.0                   # Wall atoms that are not grafted
mass          2 1.0                   # Grafted bead
mass          3 1.0                   # The rest of the beads on the chain
mass          4 2.0                   # Wall atoms that the chains are grafted to

bond_style    hybrid fene harmonic    # Finitely extensible linearly elastic bond between neighbouring beads
#bond_coeff    1 fene 30.0 1.5 0.0 0.0      # Values obtained from literature [Grest, Galushcko]
bond_coeff    1 fene 30.0 30.0 0.0 0.0
bond_coeff    2 fene 30.0 30.0 0.0 0.0       # This is the grafting bond between the polymer and the wall atom
special_bonds fene                    #
  0 = max # of 1-2 neighbors
  5 = max # of special neighbors
  special bonds CPU = 0.0003302 secs
pair_style	  lj/cut 1.122462         # LJ potential with rc=2^1/6
#pair_coeff	  * * 1.0 1.0             # LJ potential acts between all atoms
pair_coeff    1 1 0.0 0.0
pair_coeff    1 2 1.0 1.0
pair_coeff    1 3 1.0 1.0
pair_coeff    2 2 1.0 1.0
pair_coeff    2 3 1.0 1.0
pair_coeff    2 4 1.0 1.0
pair_coeff    3 3 1.0 1.0
pair_coeff    3 4 1.0 1.0
pair_coeff    4 4 0.0 0.0
neighbor      10 bin                  #
neigh_modify  one 4000

#--- Create and read the molecule file ---#
python        BSMolf input 1 $N format i file BSMolf.py
python        BSMolf input 1 30 format i file BSMolf.py
python        BSMolf invoke    # Call the python function with number of beads to write the mol file
molecule      bs     bsmol.txt     # Read the Mol file to define the polymer chain
Read molecule bs:
  30 atoms with max type 2
  29 bonds with max type 1
  0 angles with max type 0
  0 dihedrals with max type 0
  0 impropers with max type 0

#--- Define the FCC wall region ---#
region        wall  block 0 ${xhi} 0 ${yhi} 0 ${wthick}
region        wall  block 0 14.142135623731 0 ${yhi} 0 ${wthick}
region        wall  block 0 14.142135623731 0 14.142135623731 0 ${wthick}
region        wall  block 0 14.142135623731 0 14.142135623731 0 3
lattice       fcc 1
Lattice spacing in x,y,z = 1.5874 1.5874 1.5874

#--- Create the Top Brush  (At the bottom then rotate 180 degrees to top) ---#

create_atoms  1 region wall
Created 648 atoms
  create_atoms CPU = 0.0015178 secs
group         twall  region wall
648 atoms in group twall
#group         tsurf  region wsurf

# A loop to insert the Chains into the sim box
variable      i loop $M                                   # Index to insert N total number of chains
variable      i loop 10                                   
label         loop                                        # Start of loop
variable      randni equal round(random(1,${ntwall},$s))  # Pick a random "top" wall atom
variable      randni equal round(random(1,648,$s))  
variable      randni equal round(random(1,648,234897))  
variable      randatomi equal ${randni}                   # This is to obtain an integer number for atom-id
variable      randatomi equal 407                   
variable      randzi equal z[${randatomi}]                # Determine the z coordinate of the chosen atom
variable      randzi equal z[407]                
# if the chosen atom is not a surface atom then restart the loop
if            "${randzi} < $(v_wthick - 0.7)" then "jump MDPBB.in loop"
set           atom ${randatomi} type 4                    # Set this grafted wall atom as a new type
set           atom 407 type 4                    
  1 settings made for type
group         twg id ${randatomi}                         # Add this atom to a top-wall-grafted group
group         twg id 407                         
1 atoms in group twg
variable      twgcount equal count(twg)
print         "twg contains ${twgcount}"
twg contains 1
print         "i = $(v_i)"                                # The index i should always be equal to the number of atom in twg
i = 1
variable      x0 equal x[${randatomi}]                    # Determine its x-coord
variable      x0 equal x[407]                    
variable      y0 equal y[${randatomi}]                    # Determine its y-coord
variable      y0 equal y[407]                    
variable      check0 equal ${check}                       # Count the number of atoms in the simulation
variable      check0 equal 648                       
variable      b equal ${check}+1                          # The grafted bead id will be one higher after being inserted
variable      b equal 648+1                          
if            "${twgcount} != $(v_i)" then "jump MDPBB.in loop"
# Otherwise insert the chain directly above the chosen wall atom pointing perpendicular to the wall
create_atoms  1 single ${x0} ${y0} ${z0} mol bs 24987 units box remap yes rotate 0 0 0 1
create_atoms  1 single 3.9685026299205 ${y0} ${z0} mol bs 24987 units box remap yes rotate 0 0 0 1
create_atoms  1 single 3.9685026299205 3.1748021039364 ${z0} mol bs 24987 units box remap yes rotate 0 0 0 1
create_atoms  1 single 3.9685026299205 3.1748021039364 17 mol bs 24987 units box remap yes rotate 0 0 0 1
Created 30 atoms
  create_atoms CPU = 0.0002183 secs
variable      check1 equal ${check}               # Count the new total number of atoms
variable      check1 equal 678               
# Check that the molecule has indeed been inserted (This check is no longer an issue).
if            "${check1} != ${check0}" then "create_bonds  single/bond 2 ${randatomi} $b" "next i"
create_bonds  single/bond 2 ${randatomi} $b
create_bonds  single/bond 2 407 $b
create_bonds  single/bond 2 407 649
  2 = max # of 1-2 neighbors
  5 = max # of special neighbors
  special bonds CPU = 0.0047815 secs
next i
jump MDPBB.in loop    # End of the loop
variable      randni equal round(random(1,${ntwall},$s))  # Pick a random "top" wall atom
variable      randni equal round(random(1,648,$s))  
variable      randni equal round(random(1,648,234897))  
variable      randatomi equal ${randni}                   # This is to obtain an integer number for atom-id
variable      randatomi equal 103                   
variable      randzi equal z[${randatomi}]                # Determine the z coordinate of the chosen atom
variable      randzi equal z[103]                
# if the chosen atom is not a surface atom then restart the loop
if            "${randzi} < $(v_wthick - 0.7)" then "jump MDPBB.in loop"
jump MDPBB.in loop
variable      randni equal round(random(1,${ntwall},$s))  # Pick a random "top" wall atom
variable      randni equal round(random(1,648,$s))  
variable      randni equal round(random(1,648,234897))  
variable      randatomi equal ${randni}                   # This is to obtain an integer number for atom-id
variable      randatomi equal 490                   
variable      randzi equal z[${randatomi}]                # Determine the z coordinate of the chosen atom
variable      randzi equal z[490]                
# if the chosen atom is not a surface atom then restart the loop
if            "${randzi} < $(v_wthick - 0.7)" then "jump MDPBB.in loop"
jump MDPBB.in loop
variable      randni equal round(random(1,${ntwall},$s))  # Pick a random "top" wall atom
variable      randni equal round(random(1,648,$s))  
variable      randni equal round(random(1,648,234897))  
variable      randatomi equal ${randni}                   # This is to obtain an integer number for atom-id
variable      randatomi equal 494                   
variable      randzi equal z[${randatomi}]                # Determine the z coordinate of the chosen atom
variable      randzi equal z[494]                
# if the chosen atom is not a surface atom then restart the loop
if            "${randzi} < $(v_wthick - 0.7)" then "jump MDPBB.in loop"
jump MDPBB.in loop
variable      randni equal round(random(1,${ntwall},$s))  # Pick a random "top" wall atom
variable      randni equal round(random(1,648,$s))  
variable      randni equal round(random(1,648,234897))  
variable      randatomi equal ${randni}                   # This is to obtain an integer number for atom-id
variable      randatomi equal 471                   
variable      randzi equal z[${randatomi}]                # Determine the z coordinate of the chosen atom
variable      randzi equal z[471]                
# if the chosen atom is not a surface atom then restart the loop
if            "${randzi} < $(v_wthick - 0.7)" then "jump MDPBB.in loop"
set           atom ${randatomi} type 4                    # Set this grafted wall atom as a new type
set           atom 471 type 4                    
  1 settings made for type
group         twg id ${randatomi}                         # Add this atom to a top-wall-grafted group
group         twg id 471                         
2 atoms in group twg
variable      twgcount equal count(twg)
print         "twg contains ${twgcount}"
twg contains 2
print         "i = $(v_i)"                                # The index i should always be equal to the number of atom in twg
i = 2
variable      x0 equal x[${randatomi}]                    # Determine its x-coord
variable      x0 equal x[471]                    
variable      y0 equal y[${randatomi}]                    # Determine its y-coord
variable      y0 equal y[471]                    
variable      check0 equal ${check}                       # Count the number of atoms in the simulation
variable      check0 equal 678                       
variable      b equal ${check}+1                          # The grafted bead id will be one higher after being inserted
variable      b equal 678+1                          
if            "${twgcount} != $(v_i)" then "jump MDPBB.in loop"
# Otherwise insert the chain directly above the chosen wall atom pointing perpendicular to the wall
create_atoms  1 single ${x0} ${y0} ${z0} mol bs 24987 units box remap yes rotate 0 0 0 1
create_atoms  1 single 0.7937005259841 ${y0} ${z0} mol bs 24987 units box remap yes rotate 0 0 0 1
create_atoms  1 single 0.7937005259841 6.3496042078728 ${z0} mol bs 24987 units box remap yes rotate 0 0 0 1
create_atoms  1 single 0.7937005259841 6.3496042078728 17 mol bs 24987 units box remap yes rotate 0 0 0 1
Created 30 atoms
  create_atoms CPU = 4.75e-05 secs
variable      check1 equal ${check}               # Count the new total number of atoms
variable      check1 equal 708               
# Check that the molecule has indeed been inserted (This check is no longer an issue).
if            "${check1} != ${check0}" then "create_bonds  single/bond 2 ${randatomi} $b" "next i"
create_bonds  single/bond 2 ${randatomi} $b
create_bonds  single/bond 2 471 $b
create_bonds  single/bond 2 471 679
  2 = max # of 1-2 neighbors
  5 = max # of special neighbors
  special bonds CPU = 0.0023258 secs
next i
jump MDPBB.in loop    # End of the loop
variable      randni equal round(random(1,${ntwall},$s))  # Pick a random "top" wall atom
variable      randni equal round(random(1,648,$s))  
variable      randni equal round(random(1,648,234897))  
variable      randatomi equal ${randni}                   # This is to obtain an integer number for atom-id
variable      randatomi equal 638                   
variable      randzi equal z[${randatomi}]                # Determine the z coordinate of the chosen atom
variable      randzi equal z[638]                
# if the chosen atom is not a surface atom then restart the loop
if            "${randzi} < $(v_wthick - 0.7)" then "jump MDPBB.in loop"
jump MDPBB.in loop
variable      randni equal round(random(1,${ntwall},$s))  # Pick a random "top" wall atom
variable      randni equal round(random(1,648,$s))  
variable      randni equal round(random(1,648,234897))  
variable      randatomi equal ${randni}                   # This is to obtain an integer number for atom-id
variable      randatomi equal 309                   
variable      randzi equal z[${randatomi}]                # Determine the z coordinate of the chosen atom
variable      randzi equal z[309]                
# if the chosen atom is not a surface atom then restart the loop
if            "${randzi} < $(v_wthick - 0.7)" then "jump MDPBB.in loop"
jump MDPBB.in loop
variable      randni equal round(random(1,${ntwall},$s))  # Pick a random "top" wall atom
variable      randni equal round(random(1,648,$s))  
variable      randni equal round(random(1,648,234897))  
variable      randatomi equal ${randni}                   # This is to obtain an integer number for atom-id
variable      randatomi equal 218                   
variable      randzi equal z[${randatomi}]                # Determine the z coordinate of the chosen atom
variable      randzi equal z[218]                
# if the chosen atom is not a surface atom then restart the loop
if            "${randzi} < $(v_wthick - 0.7)" then "jump MDPBB.in loop"
jump MDPBB.in loop
variable      randni equal round(random(1,${ntwall},$s))  # Pick a random "top" wall atom
variable      randni equal round(random(1,648,$s))  
variable      randni equal round(random(1,648,234897))  
variable      randatomi equal ${randni}                   # This is to obtain an integer number for atom-id
variable      randatomi equal 281                   
variable      randzi equal z[${randatomi}]                # Determine the z coordinate of the chosen atom
variable      randzi equal z[281]                
# if the chosen atom is not a surface atom then restart the loop
if            "${randzi} < $(v_wthick - 0.7)" then "jump MDPBB.in loop"
jump MDPBB.in loop
variable      randni equal round(random(1,${ntwall},$s))  # Pick a random "top" wall atom
variable      randni equal round(random(1,648,$s))  
variable      randni equal round(random(1,648,234897))  
variable      randatomi equal ${randni}                   # This is to obtain an integer number for atom-id
variable      randatomi equal 469                   
variable      randzi equal z[${randatomi}]                # Determine the z coordinate of the chosen atom
variable      randzi equal z[469]                
# if the chosen atom is not a surface atom then restart the loop
if            "${randzi} < $(v_wthick - 0.7)" then "jump MDPBB.in loop"
jump MDPBB.in loop
variable      randni equal round(random(1,${ntwall},$s))  # Pick a random "top" wall atom
variable      randni equal round(random(1,648,$s))  
variable      randni equal round(random(1,648,234897))  
variable      randatomi equal ${randni}                   # This is to obtain an integer number for atom-id
variable      randatomi equal 580                   
variable      randzi equal z[${randatomi}]                # Determine the z coordinate of the chosen atom
variable      randzi equal z[580]                
# if the chosen atom is not a surface atom then restart the loop
if            "${randzi} < $(v_wthick - 0.7)" then "jump MDPBB.in loop"
set           atom ${randatomi} type 4                    # Set this grafted wall atom as a new type
set           atom 580 type 4                    
  1 settings made for type
group         twg id ${randatomi}                         # Add this atom to a top-wall-grafted group
group         twg id 580                         
3 atoms in group twg
variable      twgcount equal count(twg)
print         "twg contains ${twgcount}"
twg contains 3
print         "i = $(v_i)"                                # The index i should always be equal to the number of atom in twg
i = 3
variable      x0 equal x[${randatomi}]                    # Determine its x-coord
variable      x0 equal x[580]                    
variable      y0 equal y[${randatomi}]                    # Determine its y-coord
variable      y0 equal y[580]                    
variable      check0 equal ${check}                       # Count the number of atoms in the simulation
variable      check0 equal 708                       
variable      b equal ${check}+1                          # The grafted bead id will be one higher after being inserted
variable      b equal 708+1                          
if            "${twgcount} != $(v_i)" then "jump MDPBB.in loop"
# Otherwise insert the chain directly above the chosen wall atom pointing perpendicular to the wall
create_atoms  1 single ${x0} ${y0} ${z0} mol bs 24987 units box remap yes rotate 0 0 0 1
create_atoms  1 single 0 ${y0} ${z0} mol bs 24987 units box remap yes rotate 0 0 0 1
create_atoms  1 single 0 11.9055078897615 ${z0} mol bs 24987 units box remap yes rotate 0 0 0 1
create_atoms  1 single 0 11.9055078897615 17 mol bs 24987 units box remap yes rotate 0 0 0 1
Created 30 atoms
  create_atoms CPU = 4.7e-05 secs
variable      check1 equal ${check}               # Count the new total number of atoms
variable      check1 equal 738               
# Check that the molecule has indeed been inserted (This check is no longer an issue).
if            "${check1} != ${check0}" then "create_bonds  single/bond 2 ${randatomi} $b" "next i"
create_bonds  single/bond 2 ${randatomi} $b
create_bonds  single/bond 2 580 $b
create_bonds  single/bond 2 580 709
  2 = max # of 1-2 neighbors
  5 = max # of special neighbors
  special bonds CPU = 0.0020324 secs
next i
jump MDPBB.in loop    # End of the loop
variable      randni equal round(random(1,${ntwall},$s))  # Pick a random "top" wall atom
variable      randni equal round(random(1,648,$s))  
variable      randni equal round(random(1,648,234897))  
variable      randatomi equal ${randni}                   # This is to obtain an integer number for atom-id
variable      randatomi equal 6                   
variable      randzi equal z[${randatomi}]                # Determine the z coordinate of the chosen atom
variable      randzi equal z[6]                
# if the chosen atom is not a surface atom then restart the loop
if            "${randzi} < $(v_wthick - 0.7)" then "jump MDPBB.in loop"
jump MDPBB.in loop
variable      randni equal round(random(1,${ntwall},$s))  # Pick a random "top" wall atom
variable      randni equal round(random(1,648,$s))  
variable      randni equal round(random(1,648,234897))  
variable      randatomi equal ${randni}                   # This is to obtain an integer number for atom-id
variable      randatomi equal 124                   
variable      randzi equal z[${randatomi}]                # Determine the z coordinate of the chosen atom
variable      randzi equal z[124]                
# if the chosen atom is not a surface atom then restart the loop
if            "${randzi} < $(v_wthick - 0.7)" then "jump MDPBB.in loop"
jump MDPBB.in loop
variable      randni equal round(random(1,${ntwall},$s))  # Pick a random "top" wall atom
variable      randni equal round(random(1,648,$s))  
variable      randni equal round(random(1,648,234897))  
variable      randatomi equal ${randni}                   # This is to obtain an integer number for atom-id
variable      randatomi equal 212                   
variable      randzi equal z[${randatomi}]                # Determine the z coordinate of the chosen atom
variable      randzi equal z[212]                
# if the chosen atom is not a surface atom then restart the loop
if            "${randzi} < $(v_wthick - 0.7)" then "jump MDPBB.in loop"
jump MDPBB.in loop
variable      randni equal round(random(1,${ntwall},$s))  # Pick a random "top" wall atom
variable      randni equal round(random(1,648,$s))  
variable      randni equal round(random(1,648,234897))  
variable      randatomi equal ${randni}                   # This is to obtain an integer number for atom-id
variable      randatomi equal 525                   
variable      randzi equal z[${randatomi}]                # Determine the z coordinate of the chosen atom
variable      randzi equal z[525]                
# if the chosen atom is not a surface atom then restart the loop
if            "${randzi} < $(v_wthick - 0.7)" then "jump MDPBB.in loop"
jump MDPBB.in loop
variable      randni equal round(random(1,${ntwall},$s))  # Pick a random "top" wall atom
variable      randni equal round(random(1,648,$s))  
variable      randni equal round(random(1,648,234897))  
variable      randatomi equal ${randni}                   # This is to obtain an integer number for atom-id
variable      randatomi equal 460                   
variable      randzi equal z[${randatomi}]                # Determine the z coordinate of the chosen atom
variable      randzi equal z[460]                
# if the chosen atom is not a surface atom then restart the loop
if            "${randzi} < $(v_wthick - 0.7)" then "jump MDPBB.in loop"
set           atom ${randatomi} type 4                    # Set this grafted wall atom as a new type
set           atom 460 type 4                    
  1 settings made for type
group         twg id ${randatomi}                         # Add this atom to a top-wall-grafted group
group         twg id 460                         
4 atoms in group twg
variable      twgcount equal count(twg)
print         "twg contains ${twgcount}"
twg contains 4
print         "i = $(v_i)"                                # The index i should always be equal to the number of atom in twg
i = 4
variable      x0 equal x[${randatomi}]                    # Determine its x-coord
variable      x0 equal x[460]                    
variable      y0 equal y[${randatomi}]                    # Determine its y-coord
variable      y0 equal y[460]                    
variable      check0 equal ${check}                       # Count the number of atoms in the simulation
variable      check0 equal 738                       
variable      b equal ${check}+1                          # The grafted bead id will be one higher after being inserted
variable      b equal 738+1                          
if            "${twgcount} != $(v_i)" then "jump MDPBB.in loop"
# Otherwise insert the chain directly above the chosen wall atom pointing perpendicular to the wall
create_atoms  1 single ${x0} ${y0} ${z0} mol bs 24987 units box remap yes rotate 0 0 0 1
create_atoms  1 single 9.5244063118092 ${y0} ${z0} mol bs 24987 units box remap yes rotate 0 0 0 1
create_atoms  1 single 9.5244063118092 5.5559036818887 ${z0} mol bs 24987 units box remap yes rotate 0 0 0 1
create_atoms  1 single 9.5244063118092 5.5559036818887 17 mol bs 24987 units box remap yes rotate 0 0 0 1
Created 30 atoms
  create_atoms CPU = 3.09e-05 secs
variable      check1 equal ${check}               # Count the new total number of atoms
variable      check1 equal 768               
# Check that the molecule has indeed been inserted (This check is no longer an issue).
if            "${check1} != ${check0}" then "create_bonds  single/bond 2 ${randatomi} $b" "next i"
create_bonds  single/bond 2 ${randatomi} $b
create_bonds  single/bond 2 460 $b
create_bonds  single/bond 2 460 739
  2 = max # of 1-2 neighbors
  5 = max # of special neighbors
  special bonds CPU = 0.0025576 secs
next i
jump MDPBB.in loop    # End of the loop
variable      randni equal round(random(1,${ntwall},$s))  # Pick a random "top" wall atom
variable      randni equal round(random(1,648,$s))  
variable      randni equal round(random(1,648,234897))  
variable      randatomi equal ${randni}                   # This is to obtain an integer number for atom-id
variable      randatomi equal 447                   
variable      randzi equal z[${randatomi}]                # Determine the z coordinate of the chosen atom
variable      randzi equal z[447]                
# if the chosen atom is not a surface atom then restart the loop
if            "${randzi} < $(v_wthick - 0.7)" then "jump MDPBB.in loop"
set           atom ${randatomi} type 4                    # Set this grafted wall atom as a new type
set           atom 447 type 4                    
  1 settings made for type
group         twg id ${randatomi}                         # Add this atom to a top-wall-grafted group
group         twg id 447                         
5 atoms in group twg
variable      twgcount equal count(twg)
print         "twg contains ${twgcount}"
twg contains 5
print         "i = $(v_i)"                                # The index i should always be equal to the number of atom in twg
i = 5
variable      x0 equal x[${randatomi}]                    # Determine its x-coord
variable      x0 equal x[447]                    
variable      y0 equal y[${randatomi}]                    # Determine its y-coord
variable      y0 equal y[447]                    
variable      check0 equal ${check}                       # Count the number of atoms in the simulation
variable      check0 equal 768                       
variable      b equal ${check}+1                          # The grafted bead id will be one higher after being inserted
variable      b equal 768+1                          
if            "${twgcount} != $(v_i)" then "jump MDPBB.in loop"
# Otherwise insert the chain directly above the chosen wall atom pointing perpendicular to the wall
create_atoms  1 single ${x0} ${y0} ${z0} mol bs 24987 units box remap yes rotate 0 0 0 1
create_atoms  1 single 5.5559036818887 ${y0} ${z0} mol bs 24987 units box remap yes rotate 0 0 0 1
create_atoms  1 single 5.5559036818887 4.7622031559046 ${z0} mol bs 24987 units box remap yes rotate 0 0 0 1
create_atoms  1 single 5.5559036818887 4.7622031559046 17 mol bs 24987 units box remap yes rotate 0 0 0 1
Created 30 atoms
  create_atoms CPU = 4.91e-05 secs
variable      check1 equal ${check}               # Count the new total number of atoms
variable      check1 equal 798               
# Check that the molecule has indeed been inserted (This check is no longer an issue).
if            "${check1} != ${check0}" then "create_bonds  single/bond 2 ${randatomi} $b" "next i"
create_bonds  single/bond 2 ${randatomi} $b
create_bonds  single/bond 2 447 $b
create_bonds  single/bond 2 447 769
  2 = max # of 1-2 neighbors
  5 = max # of special neighbors
  special bonds CPU = 0.0022436 secs
next i
jump MDPBB.in loop    # End of the loop
variable      randni equal round(random(1,${ntwall},$s))  # Pick a random "top" wall atom
variable      randni equal round(random(1,648,$s))  
variable      randni equal round(random(1,648,234897))  
variable      randatomi equal ${randni}                   # This is to obtain an integer number for atom-id
variable      randatomi equal 362                   
variable      randzi equal z[${randatomi}]                # Determine the z coordinate of the chosen atom
variable      randzi equal z[362]                
# if the chosen atom is not a surface atom then restart the loop
if            "${randzi} < $(v_wthick - 0.7)" then "jump MDPBB.in loop"
jump MDPBB.in loop
variable      randni equal round(random(1,${ntwall},$s))  # Pick a random "top" wall atom
variable      randni equal round(random(1,648,$s))  
variable      randni equal round(random(1,648,234897))  
variable      randatomi equal ${randni}                   # This is to obtain an integer number for atom-id
variable      randatomi equal 505                   
variable      randzi equal z[${randatomi}]                # Determine the z coordinate of the chosen atom
variable      randzi equal z[505]                
# if the chosen atom is not a surface atom then restart the loop
if            "${randzi} < $(v_wthick - 0.7)" then "jump MDPBB.in loop"
jump MDPBB.in loop
variable      randni equal round(random(1,${ntwall},$s))  # Pick a random "top" wall atom
variable      randni equal round(random(1,648,$s))  
variable      randni equal round(random(1,648,234897))  
variable      randatomi equal ${randni}                   # This is to obtain an integer number for atom-id
variable      randatomi equal 399                   
variable      randzi equal z[${randatomi}]                # Determine the z coordinate of the chosen atom
variable      randzi equal z[399]                
# if the chosen atom is not a surface atom then restart the loop
if            "${randzi} < $(v_wthick - 0.7)" then "jump MDPBB.in loop"
set           atom ${randatomi} type 4                    # Set this grafted wall atom as a new type
set           atom 399 type 4                    
  1 settings made for type
group         twg id ${randatomi}                         # Add this atom to a top-wall-grafted group
group         twg id 399                         
6 atoms in group twg
variable      twgcount equal count(twg)
print         "twg contains ${twgcount}"
twg contains 6
print         "i = $(v_i)"                                # The index i should always be equal to the number of atom in twg
i = 6
variable      x0 equal x[${randatomi}]                    # Determine its x-coord
variable      x0 equal x[399]                    
variable      y0 equal y[${randatomi}]                    # Determine its y-coord
variable      y0 equal y[399]                    
variable      check0 equal ${check}                       # Count the number of atoms in the simulation
variable      check0 equal 798                       
variable      b equal ${check}+1                          # The grafted bead id will be one higher after being inserted
variable      b equal 798+1                          
if            "${twgcount} != $(v_i)" then "jump MDPBB.in loop"
# Otherwise insert the chain directly above the chosen wall atom pointing perpendicular to the wall
create_atoms  1 single ${x0} ${y0} ${z0} mol bs 24987 units box remap yes rotate 0 0 0 1
create_atoms  1 single 0.7937005259841 ${y0} ${z0} mol bs 24987 units box remap yes rotate 0 0 0 1
create_atoms  1 single 0.7937005259841 3.1748021039364 ${z0} mol bs 24987 units box remap yes rotate 0 0 0 1
create_atoms  1 single 0.7937005259841 3.1748021039364 17 mol bs 24987 units box remap yes rotate 0 0 0 1
Created 30 atoms
  create_atoms CPU = 3.62e-05 secs
variable      check1 equal ${check}               # Count the new total number of atoms
variable      check1 equal 828               
# Check that the molecule has indeed been inserted (This check is no longer an issue).
if            "${check1} != ${check0}" then "create_bonds  single/bond 2 ${randatomi} $b" "next i"
create_bonds  single/bond 2 ${randatomi} $b
create_bonds  single/bond 2 399 $b
create_bonds  single/bond 2 399 799
  2 = max # of 1-2 neighbors
  5 = max # of special neighbors
  special bonds CPU = 0.004026 secs
next i
jump MDPBB.in loop    # End of the loop
variable      randni equal round(random(1,${ntwall},$s))  # Pick a random "top" wall atom
variable      randni equal round(random(1,648,$s))  
variable      randni equal round(random(1,648,234897))  
variable      randatomi equal ${randni}                   # This is to obtain an integer number for atom-id
variable      randatomi equal 402                   
variable      randzi equal z[${randatomi}]                # Determine the z coordinate of the chosen atom
variable      randzi equal z[402]                
# if the chosen atom is not a surface atom then restart the loop
if            "${randzi} < $(v_wthick - 0.7)" then "jump MDPBB.in loop"
jump MDPBB.in loop
variable      randni equal round(random(1,${ntwall},$s))  # Pick a random "top" wall atom
variable      randni equal round(random(1,648,$s))  
variable      randni equal round(random(1,648,234897))  
variable      randatomi equal ${randni}                   # This is to obtain an integer number for atom-id
variable      randatomi equal 78                   
variable      randzi equal z[${randatomi}]                # Determine the z coordinate of the chosen atom
variable      randzi equal z[78]                
# if the chosen atom is not a surface atom then restart the loop
if            "${randzi} < $(v_wthick - 0.7)" then "jump MDPBB.in loop"
jump MDPBB.in loop
variable      randni equal round(random(1,${ntwall},$s))  # Pick a random "top" wall atom
variable      randni equal round(random(1,648,$s))  
variable      randni equal round(random(1,648,234897))  
variable      randatomi equal ${randni}                   # This is to obtain an integer number for atom-id
variable      randatomi equal 564                   
variable      randzi equal z[${randatomi}]                # Determine the z coordinate of the chosen atom
variable      randzi equal z[564]                
# if the chosen atom is not a surface atom then restart the loop
if            "${randzi} < $(v_wthick - 0.7)" then "jump MDPBB.in loop"
set           atom ${randatomi} type 4                    # Set this grafted wall atom as a new type
set           atom 564 type 4                    
  1 settings made for type
group         twg id ${randatomi}                         # Add this atom to a top-wall-grafted group
group         twg id 564                         
7 atoms in group twg
variable      twgcount equal count(twg)
print         "twg contains ${twgcount}"
twg contains 7
print         "i = $(v_i)"                                # The index i should always be equal to the number of atom in twg
i = 7
variable      x0 equal x[${randatomi}]                    # Determine its x-coord
variable      x0 equal x[564]                    
variable      y0 equal y[${randatomi}]                    # Determine its y-coord
variable      y0 equal y[564]                    
variable      check0 equal ${check}                       # Count the number of atoms in the simulation
variable      check0 equal 828                       
variable      b equal ${check}+1                          # The grafted bead id will be one higher after being inserted
variable      b equal 828+1                          
if            "${twgcount} != $(v_i)" then "jump MDPBB.in loop"
# Otherwise insert the chain directly above the chosen wall atom pointing perpendicular to the wall
create_atoms  1 single ${x0} ${y0} ${z0} mol bs 24987 units box remap yes rotate 0 0 0 1
create_atoms  1 single 7.937005259841 ${y0} ${z0} mol bs 24987 units box remap yes rotate 0 0 0 1
create_atoms  1 single 7.937005259841 10.3181068377933 ${z0} mol bs 24987 units box remap yes rotate 0 0 0 1
create_atoms  1 single 7.937005259841 10.3181068377933 17 mol bs 24987 units box remap yes rotate 0 0 0 1
Created 30 atoms
  create_atoms CPU = 5.27e-05 secs
variable      check1 equal ${check}               # Count the new total number of atoms
variable      check1 equal 858               
# Check that the molecule has indeed been inserted (This check is no longer an issue).
if            "${check1} != ${check0}" then "create_bonds  single/bond 2 ${randatomi} $b" "next i"
create_bonds  single/bond 2 ${randatomi} $b
create_bonds  single/bond 2 564 $b
create_bonds  single/bond 2 564 829
  2 = max # of 1-2 neighbors
  5 = max # of special neighbors
  special bonds CPU = 0.0020959 secs
next i
jump MDPBB.in loop    # End of the loop
variable      randni equal round(random(1,${ntwall},$s))  # Pick a random "top" wall atom
variable      randni equal round(random(1,648,$s))  
variable      randni equal round(random(1,648,234897))  
variable      randatomi equal ${randni}                   # This is to obtain an integer number for atom-id
variable      randatomi equal 390                   
variable      randzi equal z[${randatomi}]                # Determine the z coordinate of the chosen atom
variable      randzi equal z[390]                
# if the chosen atom is not a surface atom then restart the loop
if            "${randzi} < $(v_wthick - 0.7)" then "jump MDPBB.in loop"
jump MDPBB.in loop
variable      randni equal round(random(1,${ntwall},$s))  # Pick a random "top" wall atom
variable      randni equal round(random(1,648,$s))  
variable      randni equal round(random(1,648,234897))  
variable      randatomi equal ${randni}                   # This is to obtain an integer number for atom-id
variable      randatomi equal 595                   
variable      randzi equal z[${randatomi}]                # Determine the z coordinate of the chosen atom
variable      randzi equal z[595]                
# if the chosen atom is not a surface atom then restart the loop
if            "${randzi} < $(v_wthick - 0.7)" then "jump MDPBB.in loop"
set           atom ${randatomi} type 4                    # Set this grafted wall atom as a new type
set           atom 595 type 4                    
  1 settings made for type
group         twg id ${randatomi}                         # Add this atom to a top-wall-grafted group
group         twg id 595                         
8 atoms in group twg
variable      twgcount equal count(twg)
print         "twg contains ${twgcount}"
twg contains 8
print         "i = $(v_i)"                                # The index i should always be equal to the number of atom in twg
i = 8
variable      x0 equal x[${randatomi}]                    # Determine its x-coord
variable      x0 equal x[595]                    
variable      y0 equal y[${randatomi}]                    # Determine its y-coord
variable      y0 equal y[595]                    
variable      check0 equal ${check}                       # Count the number of atoms in the simulation
variable      check0 equal 858                       
variable      b equal ${check}+1                          # The grafted bead id will be one higher after being inserted
variable      b equal 858+1                          
if            "${twgcount} != $(v_i)" then "jump MDPBB.in loop"
# Otherwise insert the chain directly above the chosen wall atom pointing perpendicular to the wall
create_atoms  1 single ${x0} ${y0} ${z0} mol bs 24987 units box remap yes rotate 0 0 0 1
create_atoms  1 single 7.1433047338569 ${y0} ${z0} mol bs 24987 units box remap yes rotate 0 0 0 1
create_atoms  1 single 7.1433047338569 11.1118073637774 ${z0} mol bs 24987 units box remap yes rotate 0 0 0 1
create_atoms  1 single 7.1433047338569 11.1118073637774 17 mol bs 24987 units box remap yes rotate 0 0 0 1
Created 30 atoms
  create_atoms CPU = 3.88e-05 secs
variable      check1 equal ${check}               # Count the new total number of atoms
variable      check1 equal 888               
# Check that the molecule has indeed been inserted (This check is no longer an issue).
if            "${check1} != ${check0}" then "create_bonds  single/bond 2 ${randatomi} $b" "next i"
create_bonds  single/bond 2 ${randatomi} $b
create_bonds  single/bond 2 595 $b
create_bonds  single/bond 2 595 859
  2 = max # of 1-2 neighbors
  5 = max # of special neighbors
  special bonds CPU = 0.0019653 secs
next i
jump MDPBB.in loop    # End of the loop
variable      randni equal round(random(1,${ntwall},$s))  # Pick a random "top" wall atom
variable      randni equal round(random(1,648,$s))  
variable      randni equal round(random(1,648,234897))  
variable      randatomi equal ${randni}                   # This is to obtain an integer number for atom-id
variable      randatomi equal 452                   
variable      randzi equal z[${randatomi}]                # Determine the z coordinate of the chosen atom
variable      randzi equal z[452]                
# if the chosen atom is not a surface atom then restart the loop
if            "${randzi} < $(v_wthick - 0.7)" then "jump MDPBB.in loop"
set           atom ${randatomi} type 4                    # Set this grafted wall atom as a new type
set           atom 452 type 4                    
  1 settings made for type
group         twg id ${randatomi}                         # Add this atom to a top-wall-grafted group
group         twg id 452                         
9 atoms in group twg
variable      twgcount equal count(twg)
print         "twg contains ${twgcount}"
twg contains 9
print         "i = $(v_i)"                                # The index i should always be equal to the number of atom in twg
i = 9
variable      x0 equal x[${randatomi}]                    # Determine its x-coord
variable      x0 equal x[452]                    
variable      y0 equal y[${randatomi}]                    # Determine its y-coord
variable      y0 equal y[452]                    
variable      check0 equal ${check}                       # Count the number of atoms in the simulation
variable      check0 equal 888                       
variable      b equal ${check}+1                          # The grafted bead id will be one higher after being inserted
variable      b equal 888+1                          
if            "${twgcount} != $(v_i)" then "jump MDPBB.in loop"
# Otherwise insert the chain directly above the chosen wall atom pointing perpendicular to the wall
create_atoms  1 single ${x0} ${y0} ${z0} mol bs 24987 units box remap yes rotate 0 0 0 1
create_atoms  1 single 6.3496042078728 ${y0} ${z0} mol bs 24987 units box remap yes rotate 0 0 0 1
create_atoms  1 single 6.3496042078728 5.5559036818887 ${z0} mol bs 24987 units box remap yes rotate 0 0 0 1
create_atoms  1 single 6.3496042078728 5.5559036818887 17 mol bs 24987 units box remap yes rotate 0 0 0 1
Created 30 atoms
  create_atoms CPU = 4.28e-05 secs
variable      check1 equal ${check}               # Count the new total number of atoms
variable      check1 equal 918               
# Check that the molecule has indeed been inserted (This check is no longer an issue).
if            "${check1} != ${check0}" then "create_bonds  single/bond 2 ${randatomi} $b" "next i"
create_bonds  single/bond 2 ${randatomi} $b
create_bonds  single/bond 2 452 $b
create_bonds  single/bond 2 452 889
  2 = max # of 1-2 neighbors
  5 = max # of special neighbors
  special bonds CPU = 0.0019026 secs
next i
jump MDPBB.in loop    # End of the loop
variable      randni equal round(random(1,${ntwall},$s))  # Pick a random "top" wall atom
variable      randni equal round(random(1,648,$s))  
variable      randni equal round(random(1,648,234897))  
variable      randatomi equal ${randni}                   # This is to obtain an integer number for atom-id
variable      randatomi equal 582                   
variable      randzi equal z[${randatomi}]                # Determine the z coordinate of the chosen atom
variable      randzi equal z[582]                
# if the chosen atom is not a surface atom then restart the loop
if            "${randzi} < $(v_wthick - 0.7)" then "jump MDPBB.in loop"
jump MDPBB.in loop
variable      randni equal round(random(1,${ntwall},$s))  # Pick a random "top" wall atom
variable      randni equal round(random(1,648,$s))  
variable      randni equal round(random(1,648,234897))  
variable      randatomi equal ${randni}                   # This is to obtain an integer number for atom-id
variable      randatomi equal 382                   
variable      randzi equal z[${randatomi}]                # Determine the z coordinate of the chosen atom
variable      randzi equal z[382]                
# if the chosen atom is not a surface atom then restart the loop
if            "${randzi} < $(v_wthick - 0.7)" then "jump MDPBB.in loop"
jump MDPBB.in loop
variable      randni equal round(random(1,${ntwall},$s))  # Pick a random "top" wall atom
variable      randni equal round(random(1,648,$s))  
variable      randni equal round(random(1,648,234897))  
variable      randatomi equal ${randni}                   # This is to obtain an integer number for atom-id
variable      randatomi equal 551                   
variable      randzi equal z[${randatomi}]                # Determine the z coordinate of the chosen atom
variable      randzi equal z[551]                
# if the chosen atom is not a surface atom then restart the loop
if            "${randzi} < $(v_wthick - 0.7)" then "jump MDPBB.in loop"
set           atom ${randatomi} type 4                    # Set this grafted wall atom as a new type
set           atom 551 type 4                    
  1 settings made for type
group         twg id ${randatomi}                         # Add this atom to a top-wall-grafted group
group         twg id 551                         
10 atoms in group twg
variable      twgcount equal count(twg)
print         "twg contains ${twgcount}"
twg contains 10
print         "i = $(v_i)"                                # The index i should always be equal to the number of atom in twg
i = 10
variable      x0 equal x[${randatomi}]                    # Determine its x-coord
variable      x0 equal x[551]                    
variable      y0 equal y[${randatomi}]                    # Determine its y-coord
variable      y0 equal y[551]                    
variable      check0 equal ${check}                       # Count the number of atoms in the simulation
variable      check0 equal 918                       
variable      b equal ${check}+1                          # The grafted bead id will be one higher after being inserted
variable      b equal 918+1                          
if            "${twgcount} != $(v_i)" then "jump MDPBB.in loop"
# Otherwise insert the chain directly above the chosen wall atom pointing perpendicular to the wall
create_atoms  1 single ${x0} ${y0} ${z0} mol bs 24987 units box remap yes rotate 0 0 0 1
create_atoms  1 single 3.9685026299205 ${y0} ${z0} mol bs 24987 units box remap yes rotate 0 0 0 1
create_atoms  1 single 3.9685026299205 9.5244063118092 ${z0} mol bs 24987 units box remap yes rotate 0 0 0 1
create_atoms  1 single 3.9685026299205 9.5244063118092 17 mol bs 24987 units box remap yes rotate 0 0 0 1
Created 30 atoms
  create_atoms CPU = 6.42e-05 secs
variable      check1 equal ${check}               # Count the new total number of atoms
variable      check1 equal 948               
# Check that the molecule has indeed been inserted (This check is no longer an issue).
if            "${check1} != ${check0}" then "create_bonds  single/bond 2 ${randatomi} $b" "next i"
create_bonds  single/bond 2 ${randatomi} $b
create_bonds  single/bond 2 551 $b
create_bonds  single/bond 2 551 919
  2 = max # of 1-2 neighbors
  5 = max # of special neighbors
  special bonds CPU = 0.0041382 secs
next i
jump MDPBB.in loop    # End of the loop

# Rotate the created brush about the centre of the simulation box by 180 degrees to make it true top brush
displace_atoms all rotate $(v_xhi/2.0) $(v_yhi/2.0) $(v_zhi/2.0 - 1) 1 0 0 180 units box
displace_atoms all rotate 7.0710678118655003743 $(v_yhi/2.0) $(v_zhi/2.0 - 1) 1 0 0 180 units box
displace_atoms all rotate 7.0710678118655003743 7.0710678118655003743 $(v_zhi/2.0 - 1) 1 0 0 180 units box
displace_atoms all rotate 7.0710678118655003743 7.0710678118655003743 35 1 0 0 180 units box

variable      ntop0 equal ${check}          # Count the total number of atoms in the top brush
variable      ntop0 equal 948          

#--- Create the Bottom brush ---#

# Repeating the same procedure as above again but with new atoms

create_atoms  1 region wall
Created 648 atoms
  create_atoms CPU = 0.000184 secs
group         bwall region wall
648 atoms in group bwall
variable      nbwall0 equal ${nbwall}
variable      nbwall0 equal 648

variable      j loop $M
variable      j loop 10
label         loopj
variable      randnj equal round(random(v_ntop0,$(v_ntop0 + v_nbwall0),$s))
variable      randnj equal round(random(v_ntop0,1596,$s))
variable      randnj equal round(random(v_ntop0,1596,234897))
variable      randatomj equal ${randnj}
variable      randatomj equal 1491
variable      randzj equal z[${randatomj}]
variable      randzj equal z[1491]
if            "${randzj} < $(v_wthick - 0.7)" then "jump MDPBB.in loopj"
set           atom ${randatomj} type 4
set           atom 1491 type 4
  1 settings made for type
group         bwg id ${randatomj}                         # Add this atom to a bot-wall-grafted group
group         bwg id 1491                         
1 atoms in group bwg
variable      bwgcount equal count(bwg)
print         "bwg contains ${bwgcount}"
bwg contains 1
print         "j = $(v_j)"
j = 1
variable      x0 equal x[${randatomj}]
variable      x0 equal x[1491]
variable      y0 equal y[${randatomj}]
variable      y0 equal y[1491]
variable      check0 equal ${check}
variable      check0 equal 1596
variable      b equal ${check}+1
variable      b equal 1596+1
if            "${bwgcount} != $(v_j)" then "jump MDPBB.in loopj"
create_atoms  1 single ${x0} ${y0} ${z0} mol bs 24987 units box remap yes rotate 0 0 0 1
create_atoms  1 single 0.7937005259841 ${y0} ${z0} mol bs 24987 units box remap yes rotate 0 0 0 1
create_atoms  1 single 0.7937005259841 9.5244063118092 ${z0} mol bs 24987 units box remap yes rotate 0 0 0 1
create_atoms  1 single 0.7937005259841 9.5244063118092 17 mol bs 24987 units box remap yes rotate 0 0 0 1
Created 30 atoms
  create_atoms CPU = 8.3e-05 secs
variable      check1 equal ${check}
variable      check1 equal 1626
if            "${check1} != ${check0}" then "create_bonds  single/bond 2 ${randatomj} $b" "next j"
create_bonds  single/bond 2 ${randatomj} $b
create_bonds  single/bond 2 1491 $b
create_bonds  single/bond 2 1491 1597
  2 = max # of 1-2 neighbors
  5 = max # of special neighbors
  special bonds CPU = 0.0021081 secs
next j
jump MDPBB.in loopj
variable      randnj equal round(random(v_ntop0,$(v_ntop0 + v_nbwall0),$s))
variable      randnj equal round(random(v_ntop0,1596,$s))
variable      randnj equal round(random(v_ntop0,1596,234897))
variable      randatomj equal ${randnj}
variable      randatomj equal 1217
variable      randzj equal z[${randatomj}]
variable      randzj equal z[1217]
if            "${randzj} < $(v_wthick - 0.7)" then "jump MDPBB.in loopj"
jump MDPBB.in loopj
variable      randnj equal round(random(v_ntop0,$(v_ntop0 + v_nbwall0),$s))
variable      randnj equal round(random(v_ntop0,1596,$s))
variable      randnj equal round(random(v_ntop0,1596,234897))
variable      randatomj equal ${randnj}
variable      randatomj equal 1595
variable      randzj equal z[${randatomj}]
variable      randzj equal z[1595]
if            "${randzj} < $(v_wthick - 0.7)" then "jump MDPBB.in loopj"
set           atom ${randatomj} type 4
set           atom 1595 type 4
  1 settings made for type
group         bwg id ${randatomj}                         # Add this atom to a bot-wall-grafted group
group         bwg id 1595                         
2 atoms in group bwg
variable      bwgcount equal count(bwg)
print         "bwg contains ${bwgcount}"
bwg contains 2
print         "j = $(v_j)"
j = 2
variable      x0 equal x[${randatomj}]
variable      x0 equal x[1595]
variable      y0 equal y[${randatomj}]
variable      y0 equal y[1595]
variable      check0 equal ${check}
variable      check0 equal 1626
variable      b equal ${check}+1
variable      b equal 1626+1
if            "${bwgcount} != $(v_j)" then "jump MDPBB.in loopj"
create_atoms  1 single ${x0} ${y0} ${z0} mol bs 24987 units box remap yes rotate 0 0 0 1
create_atoms  1 single 13.4929089417297 ${y0} ${z0} mol bs 24987 units box remap yes rotate 0 0 0 1
create_atoms  1 single 13.4929089417297 12.6992084157456 ${z0} mol bs 24987 units box remap yes rotate 0 0 0 1
create_atoms  1 single 13.4929089417297 12.6992084157456 17 mol bs 24987 units box remap yes rotate 0 0 0 1
Created 30 atoms
  create_atoms CPU = 5.4e-05 secs
variable      check1 equal ${check}
variable      check1 equal 1656
if            "${check1} != ${check0}" then "create_bonds  single/bond 2 ${randatomj} $b" "next j"
create_bonds  single/bond 2 ${randatomj} $b
create_bonds  single/bond 2 1595 $b
create_bonds  single/bond 2 1595 1627
  2 = max # of 1-2 neighbors
  5 = max # of special neighbors
  special bonds CPU = 0.0019861 secs
next j
jump MDPBB.in loopj
variable      randnj equal round(random(v_ntop0,$(v_ntop0 + v_nbwall0),$s))
variable      randnj equal round(random(v_ntop0,1596,$s))
variable      randnj equal round(random(v_ntop0,1596,234897))
variable      randatomj equal ${randnj}
variable      randatomj equal 1580
variable      randzj equal z[${randatomj}]
variable      randzj equal z[1580]
if            "${randzj} < $(v_wthick - 0.7)" then "jump MDPBB.in loopj"
set           atom ${randatomj} type 4
set           atom 1580 type 4
  1 settings made for type
group         bwg id ${randatomj}                         # Add this atom to a bot-wall-grafted group
group         bwg id 1580                         
3 atoms in group bwg
variable      bwgcount equal count(bwg)
print         "bwg contains ${bwgcount}"
bwg contains 3
print         "j = $(v_j)"
j = 3
variable      x0 equal x[${randatomj}]
variable      x0 equal x[1580]
variable      y0 equal y[${randatomj}]
variable      y0 equal y[1580]
variable      check0 equal ${check}
variable      check0 equal 1656
variable      b equal ${check}+1
variable      b equal 1656+1
if            "${bwgcount} != $(v_j)" then "jump MDPBB.in loopj"
create_atoms  1 single ${x0} ${y0} ${z0} mol bs 24987 units box remap yes rotate 0 0 0 1
create_atoms  1 single 6.3496042078728 ${y0} ${z0} mol bs 24987 units box remap yes rotate 0 0 0 1
create_atoms  1 single 6.3496042078728 13.4929089417297 ${z0} mol bs 24987 units box remap yes rotate 0 0 0 1
create_atoms  1 single 6.3496042078728 13.4929089417297 17 mol bs 24987 units box remap yes rotate 0 0 0 1
Created 30 atoms
  create_atoms CPU = 6.53e-05 secs
variable      check1 equal ${check}
variable      check1 equal 1686
if            "${check1} != ${check0}" then "create_bonds  single/bond 2 ${randatomj} $b" "next j"
create_bonds  single/bond 2 ${randatomj} $b
create_bonds  single/bond 2 1580 $b
create_bonds  single/bond 2 1580 1657
  2 = max # of 1-2 neighbors
  5 = max # of special neighbors
  special bonds CPU = 0.0040908 secs
next j
jump MDPBB.in loopj
variable      randnj equal round(random(v_ntop0,$(v_ntop0 + v_nbwall0),$s))
variable      randnj equal round(random(v_ntop0,1596,$s))
variable      randnj equal round(random(v_ntop0,1596,234897))
variable      randatomj equal ${randnj}
variable      randatomj equal 1417
variable      randzj equal z[${randatomj}]
variable      randzj equal z[1417]
if            "${randzj} < $(v_wthick - 0.7)" then "jump MDPBB.in loopj"
jump MDPBB.in loopj
variable      randnj equal round(random(v_ntop0,$(v_ntop0 + v_nbwall0),$s))
variable      randnj equal round(random(v_ntop0,1596,$s))
variable      randnj equal round(random(v_ntop0,1596,234897))
variable      randatomj equal ${randnj}
variable      randatomj equal 1557
variable      randzj equal z[${randatomj}]
variable      randzj equal z[1557]
if            "${randzj} < $(v_wthick - 0.7)" then "jump MDPBB.in loopj"
jump MDPBB.in loopj
variable      randnj equal round(random(v_ntop0,$(v_ntop0 + v_nbwall0),$s))
variable      randnj equal round(random(v_ntop0,1596,$s))
variable      randnj equal round(random(v_ntop0,1596,234897))
variable      randatomj equal ${randnj}
variable      randatomj equal 1101
variable      randzj equal z[${randatomj}]
variable      randzj equal z[1101]
if            "${randzj} < $(v_wthick - 0.7)" then "jump MDPBB.in loopj"
jump MDPBB.in loopj
variable      randnj equal round(random(v_ntop0,$(v_ntop0 + v_nbwall0),$s))
variable      randnj equal round(random(v_ntop0,1596,$s))
variable      randnj equal round(random(v_ntop0,1596,234897))
variable      randatomj equal ${randnj}
variable      randatomj equal 1552
variable      randzj equal z[${randatomj}]
variable      randzj equal z[1552]
if            "${randzj} < $(v_wthick - 0.7)" then "jump MDPBB.in loopj"
set           atom ${randatomj} type 4
set           atom 1552 type 4
  1 settings made for type
group         bwg id ${randatomj}                         # Add this atom to a bot-wall-grafted group
group         bwg id 1552                         
4 atoms in group bwg
variable      bwgcount equal count(bwg)
print         "bwg contains ${bwgcount}"
bwg contains 4
print         "j = $(v_j)"
j = 4
variable      x0 equal x[${randatomj}]
variable      x0 equal x[1552]
variable      y0 equal y[${randatomj}]
variable      y0 equal y[1552]
variable      check0 equal ${check}
variable      check0 equal 1686
variable      b equal ${check}+1
variable      b equal 1686+1
if            "${bwgcount} != $(v_j)" then "jump MDPBB.in loopj"
create_atoms  1 single ${x0} ${y0} ${z0} mol bs 24987 units box remap yes rotate 0 0 0 1
create_atoms  1 single 9.5244063118092 ${y0} ${z0} mol bs 24987 units box remap yes rotate 0 0 0 1
create_atoms  1 single 9.5244063118092 11.9055078897615 ${z0} mol bs 24987 units box remap yes rotate 0 0 0 1
create_atoms  1 single 9.5244063118092 11.9055078897615 17 mol bs 24987 units box remap yes rotate 0 0 0 1
Created 30 atoms
  create_atoms CPU = 7.18e-05 secs
variable      check1 equal ${check}
variable      check1 equal 1716
if            "${check1} != ${check0}" then "create_bonds  single/bond 2 ${randatomj} $b" "next j"
create_bonds  single/bond 2 ${randatomj} $b
create_bonds  single/bond 2 1552 $b
create_bonds  single/bond 2 1552 1687
  2 = max # of 1-2 neighbors
  5 = max # of special neighbors
  special bonds CPU = 0.0020636 secs
next j
jump MDPBB.in loopj
variable      randnj equal round(random(v_ntop0,$(v_ntop0 + v_nbwall0),$s))
variable      randnj equal round(random(v_ntop0,1596,$s))
variable      randnj equal round(random(v_ntop0,1596,234897))
variable      randatomj equal ${randnj}
variable      randatomj equal 1033
variable      randzj equal z[${randatomj}]
variable      randzj equal z[1033]
if            "${randzj} < $(v_wthick - 0.7)" then "jump MDPBB.in loopj"
jump MDPBB.in loopj
variable      randnj equal round(random(v_ntop0,$(v_ntop0 + v_nbwall0),$s))
variable      randnj equal round(random(v_ntop0,1596,$s))
variable      randnj equal round(random(v_ntop0,1596,234897))
variable      randatomj equal ${randnj}
variable      randatomj equal 1499
variable      randzj equal z[${randatomj}]
variable      randzj equal z[1499]
if            "${randzj} < $(v_wthick - 0.7)" then "jump MDPBB.in loopj"
set           atom ${randatomj} type 4
set           atom 1499 type 4
  1 settings made for type
group         bwg id ${randatomj}                         # Add this atom to a bot-wall-grafted group
group         bwg id 1499                         
5 atoms in group bwg
variable      bwgcount equal count(bwg)
print         "bwg contains ${bwgcount}"
bwg contains 5
print         "j = $(v_j)"
j = 5
variable      x0 equal x[${randatomj}]
variable      x0 equal x[1499]
variable      y0 equal y[${randatomj}]
variable      y0 equal y[1499]
variable      check0 equal ${check}
variable      check0 equal 1716
variable      b equal ${check}+1
variable      b equal 1716+1
if            "${bwgcount} != $(v_j)" then "jump MDPBB.in loopj"
create_atoms  1 single ${x0} ${y0} ${z0} mol bs 24987 units box remap yes rotate 0 0 0 1
create_atoms  1 single 3.9685026299205 ${y0} ${z0} mol bs 24987 units box remap yes rotate 0 0 0 1
create_atoms  1 single 3.9685026299205 9.5244063118092 ${z0} mol bs 24987 units box remap yes rotate 0 0 0 1
create_atoms  1 single 3.9685026299205 9.5244063118092 17 mol bs 24987 units box remap yes rotate 0 0 0 1
Created 30 atoms
  create_atoms CPU = 4.41e-05 secs
variable      check1 equal ${check}
variable      check1 equal 1746
if            "${check1} != ${check0}" then "create_bonds  single/bond 2 ${randatomj} $b" "next j"
create_bonds  single/bond 2 ${randatomj} $b
create_bonds  single/bond 2 1499 $b
create_bonds  single/bond 2 1499 1717
  2 = max # of 1-2 neighbors
  5 = max # of special neighbors
  special bonds CPU = 0.0019022 secs
next j
jump MDPBB.in loopj
variable      randnj equal round(random(v_ntop0,$(v_ntop0 + v_nbwall0),$s))
variable      randnj equal round(random(v_ntop0,1596,$s))
variable      randnj equal round(random(v_ntop0,1596,234897))
variable      randatomj equal ${randnj}
variable      randatomj equal 1553
variable      randzj equal z[${randatomj}]
variable      randzj equal z[1553]
if            "${randzj} < $(v_wthick - 0.7)" then "jump MDPBB.in loopj"
jump MDPBB.in loopj
variable      randnj equal round(random(v_ntop0,$(v_ntop0 + v_nbwall0),$s))
variable      randnj equal round(random(v_ntop0,1596,$s))
variable      randnj equal round(random(v_ntop0,1596,234897))
variable      randatomj equal ${randnj}
variable      randatomj equal 1170
variable      randzj equal z[${randatomj}]
variable      randzj equal z[1170]
if            "${randzj} < $(v_wthick - 0.7)" then "jump MDPBB.in loopj"
jump MDPBB.in loopj
variable      randnj equal round(random(v_ntop0,$(v_ntop0 + v_nbwall0),$s))
variable      randnj equal round(random(v_ntop0,1596,$s))
variable      randnj equal round(random(v_ntop0,1596,234897))
variable      randatomj equal ${randnj}
variable      randatomj equal 1117
variable      randzj equal z[${randatomj}]
variable      randzj equal z[1117]
if            "${randzj} < $(v_wthick - 0.7)" then "jump MDPBB.in loopj"
jump MDPBB.in loopj
variable      randnj equal round(random(v_ntop0,$(v_ntop0 + v_nbwall0),$s))
variable      randnj equal round(random(v_ntop0,1596,$s))
variable      randnj equal round(random(v_ntop0,1596,234897))
variable      randatomj equal ${randnj}
variable      randatomj equal 1378
variable      randzj equal z[${randatomj}]
variable      randzj equal z[1378]
if            "${randzj} < $(v_wthick - 0.7)" then "jump MDPBB.in loopj"
jump MDPBB.in loopj
variable      randnj equal round(random(v_ntop0,$(v_ntop0 + v_nbwall0),$s))
variable      randnj equal round(random(v_ntop0,1596,$s))
variable      randnj equal round(random(v_ntop0,1596,234897))
variable      randatomj equal ${randnj}
variable      randatomj equal 1250
variable      randzj equal z[${randatomj}]
variable      randzj equal z[1250]
if            "${randzj} < $(v_wthick - 0.7)" then "jump MDPBB.in loopj"
jump MDPBB.in loopj
variable      randnj equal round(random(v_ntop0,$(v_ntop0 + v_nbwall0),$s))
variable      randnj equal round(random(v_ntop0,1596,$s))
variable      randnj equal round(random(v_ntop0,1596,234897))
variable      randatomj equal ${randnj}
variable      randatomj equal 1042
variable      randzj equal z[${randatomj}]
variable      randzj equal z[1042]
if            "${randzj} < $(v_wthick - 0.7)" then "jump MDPBB.in loopj"
jump MDPBB.in loopj
variable      randnj equal round(random(v_ntop0,$(v_ntop0 + v_nbwall0),$s))
variable      randnj equal round(random(v_ntop0,1596,$s))
variable      randnj equal round(random(v_ntop0,1596,234897))
variable      randatomj equal ${randnj}
variable      randatomj equal 1545
variable      randzj equal z[${randatomj}]
variable      randzj equal z[1545]
if            "${randzj} < $(v_wthick - 0.7)" then "jump MDPBB.in loopj"
jump MDPBB.in loopj
variable      randnj equal round(random(v_ntop0,$(v_ntop0 + v_nbwall0),$s))
variable      randnj equal round(random(v_ntop0,1596,$s))
variable      randnj equal round(random(v_ntop0,1596,234897))
variable      randatomj equal ${randnj}
variable      randatomj equal 1568
variable      randzj equal z[${randatomj}]
variable      randzj equal z[1568]
if            "${randzj} < $(v_wthick - 0.7)" then "jump MDPBB.in loopj"
set           atom ${randatomj} type 4
set           atom 1568 type 4
  1 settings made for type
group         bwg id ${randatomj}                         # Add this atom to a bot-wall-grafted group
group         bwg id 1568                         
6 atoms in group bwg
variable      bwgcount equal count(bwg)
print         "bwg contains ${bwgcount}"
bwg contains 6
print         "j = $(v_j)"
j = 6
variable      x0 equal x[${randatomj}]
variable      x0 equal x[1568]
variable      y0 equal y[${randatomj}]
variable      y0 equal y[1568]
variable      check0 equal ${check}
variable      check0 equal 1746
variable      b equal ${check}+1
variable      b equal 1746+1
if            "${bwgcount} != $(v_j)" then "jump MDPBB.in loopj"
create_atoms  1 single ${x0} ${y0} ${z0} mol bs 24987 units box remap yes rotate 0 0 0 1
create_atoms  1 single 1.5874010519682 ${y0} ${z0} mol bs 24987 units box remap yes rotate 0 0 0 1
create_atoms  1 single 1.5874010519682 13.4929089417297 ${z0} mol bs 24987 units box remap yes rotate 0 0 0 1
create_atoms  1 single 1.5874010519682 13.4929089417297 17 mol bs 24987 units box remap yes rotate 0 0 0 1
Created 30 atoms
  create_atoms CPU = 5.4e-05 secs
variable      check1 equal ${check}
variable      check1 equal 1776
if            "${check1} != ${check0}" then "create_bonds  single/bond 2 ${randatomj} $b" "next j"
create_bonds  single/bond 2 ${randatomj} $b
create_bonds  single/bond 2 1568 $b
create_bonds  single/bond 2 1568 1747
  2 = max # of 1-2 neighbors
  5 = max # of special neighbors
  special bonds CPU = 0.0019631 secs
next j
jump MDPBB.in loopj
variable      randnj equal round(random(v_ntop0,$(v_ntop0 + v_nbwall0),$s))
variable      randnj equal round(random(v_ntop0,1596,$s))
variable      randnj equal round(random(v_ntop0,1596,234897))
variable      randatomj equal ${randnj}
variable      randatomj equal 1534
variable      randzj equal z[${randatomj}]
variable      randzj equal z[1534]
if            "${randzj} < $(v_wthick - 0.7)" then "jump MDPBB.in loopj"
jump MDPBB.in loopj
variable      randnj equal round(random(v_ntop0,$(v_ntop0 + v_nbwall0),$s))
variable      randnj equal round(random(v_ntop0,1596,$s))
variable      randnj equal round(random(v_ntop0,1596,234897))
variable      randatomj equal ${randnj}
variable      randatomj equal 1464
variable      randzj equal z[${randatomj}]
variable      randzj equal z[1464]
if            "${randzj} < $(v_wthick - 0.7)" then "jump MDPBB.in loopj"
set           atom ${randatomj} type 4
set           atom 1464 type 4
  1 settings made for type
group         bwg id ${randatomj}                         # Add this atom to a bot-wall-grafted group
group         bwg id 1464                         
7 atoms in group bwg
variable      bwgcount equal count(bwg)
print         "bwg contains ${bwgcount}"
bwg contains 7
print         "j = $(v_j)"
j = 7
variable      x0 equal x[${randatomj}]
variable      x0 equal x[1464]
variable      y0 equal y[${randatomj}]
variable      y0 equal y[1464]
variable      check0 equal ${check}
variable      check0 equal 1776
variable      b equal ${check}+1
variable      b equal 1776+1
if            "${bwgcount} != $(v_j)" then "jump MDPBB.in loopj"
create_atoms  1 single ${x0} ${y0} ${z0} mol bs 24987 units box remap yes rotate 0 0 0 1
create_atoms  1 single 3.1748021039364 ${y0} ${z0} mol bs 24987 units box remap yes rotate 0 0 0 1
create_atoms  1 single 3.1748021039364 8.7307057858251 ${z0} mol bs 24987 units box remap yes rotate 0 0 0 1
create_atoms  1 single 3.1748021039364 8.7307057858251 17 mol bs 24987 units box remap yes rotate 0 0 0 1
Created 30 atoms
  create_atoms CPU = 0.0001022 secs
variable      check1 equal ${check}
variable      check1 equal 1806
if            "${check1} != ${check0}" then "create_bonds  single/bond 2 ${randatomj} $b" "next j"
create_bonds  single/bond 2 ${randatomj} $b
create_bonds  single/bond 2 1464 $b
create_bonds  single/bond 2 1464 1777
  2 = max # of 1-2 neighbors
  5 = max # of special neighbors
  special bonds CPU = 0.0041095 secs
next j
jump MDPBB.in loopj
variable      randnj equal round(random(v_ntop0,$(v_ntop0 + v_nbwall0),$s))
variable      randnj equal round(random(v_ntop0,1596,$s))
variable      randnj equal round(random(v_ntop0,1596,234897))
variable      randatomj equal ${randnj}
variable      randatomj equal 1232
variable      randzj equal z[${randatomj}]
variable      randzj equal z[1232]
if            "${randzj} < $(v_wthick - 0.7)" then "jump MDPBB.in loopj"
jump MDPBB.in loopj
variable      randnj equal round(random(v_ntop0,$(v_ntop0 + v_nbwall0),$s))
variable      randnj equal round(random(v_ntop0,1596,$s))
variable      randnj equal round(random(v_ntop0,1596,234897))
variable      randatomj equal ${randnj}
variable      randatomj equal 1188
variable      randzj equal z[${randatomj}]
variable      randzj equal z[1188]
if            "${randzj} < $(v_wthick - 0.7)" then "jump MDPBB.in loopj"
jump MDPBB.in loopj
variable      randnj equal round(random(v_ntop0,$(v_ntop0 + v_nbwall0),$s))
variable      randnj equal round(random(v_ntop0,1596,$s))
variable      randnj equal round(random(v_ntop0,1596,234897))
variable      randatomj equal ${randnj}
variable      randatomj equal 1402
variable      randzj equal z[${randatomj}]
variable      randzj equal z[1402]
if            "${randzj} < $(v_wthick - 0.7)" then "jump MDPBB.in loopj"
jump MDPBB.in loopj
variable      randnj equal round(random(v_ntop0,$(v_ntop0 + v_nbwall0),$s))
variable      randnj equal round(random(v_ntop0,1596,$s))
variable      randnj equal round(random(v_ntop0,1596,234897))
variable      randatomj equal ${randnj}
variable      randatomj equal 1009
variable      randzj equal z[${randatomj}]
variable      randzj equal z[1009]
if            "${randzj} < $(v_wthick - 0.7)" then "jump MDPBB.in loopj"
jump MDPBB.in loopj
variable      randnj equal round(random(v_ntop0,$(v_ntop0 + v_nbwall0),$s))
variable      randnj equal round(random(v_ntop0,1596,$s))
variable      randnj equal round(random(v_ntop0,1596,234897))
variable      randatomj equal ${randnj}
variable      randatomj equal 1193
variable      randzj equal z[${randatomj}]
variable      randzj equal z[1193]
if            "${randzj} < $(v_wthick - 0.7)" then "jump MDPBB.in loopj"
jump MDPBB.in loopj
variable      randnj equal round(random(v_ntop0,$(v_ntop0 + v_nbwall0),$s))
variable      randnj equal round(random(v_ntop0,1596,$s))
variable      randnj equal round(random(v_ntop0,1596,234897))
variable      randatomj equal ${randnj}
variable      randatomj equal 1231
variable      randzj equal z[${randatomj}]
variable      randzj equal z[1231]
if            "${randzj} < $(v_wthick - 0.7)" then "jump MDPBB.in loopj"
jump MDPBB.in loopj
variable      randnj equal round(random(v_ntop0,$(v_ntop0 + v_nbwall0),$s))
variable      randnj equal round(random(v_ntop0,1596,$s))
variable      randnj equal round(random(v_ntop0,1596,234897))
variable      randatomj equal ${randnj}
variable      randatomj equal 1161
variable      randzj equal z[${randatomj}]
variable      randzj equal z[1161]
if            "${randzj} < $(v_wthick - 0.7)" then "jump MDPBB.in loopj"
jump MDPBB.in loopj
variable      randnj equal round(random(v_ntop0,$(v_ntop0 + v_nbwall0),$s))
variable      randnj equal round(random(v_ntop0,1596,$s))
variable      randnj equal round(random(v_ntop0,1596,234897))
variable      randatomj equal ${randnj}
variable      randatomj equal 1343
variable      randzj equal z[${randatomj}]
variable      randzj equal z[1343]
if            "${randzj} < $(v_wthick - 0.7)" then "jump MDPBB.in loopj"
set           atom ${randatomj} type 4
set           atom 1343 type 4
  1 settings made for type
group         bwg id ${randatomj}                         # Add this atom to a bot-wall-grafted group
group         bwg id 1343                         
8 atoms in group bwg
variable      bwgcount equal count(bwg)
print         "bwg contains ${bwgcount}"
bwg contains 8
print         "j = $(v_j)"
j = 8
variable      x0 equal x[${randatomj}]
variable      x0 equal x[1343]
variable      y0 equal y[${randatomj}]
variable      y0 equal y[1343]
variable      check0 equal ${check}
variable      check0 equal 1806
variable      b equal ${check}+1
variable      b equal 1806+1
if            "${bwgcount} != $(v_j)" then "jump MDPBB.in loopj"
create_atoms  1 single ${x0} ${y0} ${z0} mol bs 24987 units box remap yes rotate 0 0 0 1
create_atoms  1 single 13.4929089417297 ${y0} ${z0} mol bs 24987 units box remap yes rotate 0 0 0 1
create_atoms  1 single 13.4929089417297 1.5874010519682 ${z0} mol bs 24987 units box remap yes rotate 0 0 0 1
create_atoms  1 single 13.4929089417297 1.5874010519682 17 mol bs 24987 units box remap yes rotate 0 0 0 1
Created 30 atoms
  create_atoms CPU = 5e-05 secs
variable      check1 equal ${check}
variable      check1 equal 1836
if            "${check1} != ${check0}" then "create_bonds  single/bond 2 ${randatomj} $b" "next j"
create_bonds  single/bond 2 ${randatomj} $b
create_bonds  single/bond 2 1343 $b
create_bonds  single/bond 2 1343 1807
  2 = max # of 1-2 neighbors
  5 = max # of special neighbors
  special bonds CPU = 0.0037344 secs
next j
jump MDPBB.in loopj
variable      randnj equal round(random(v_ntop0,$(v_ntop0 + v_nbwall0),$s))
variable      randnj equal round(random(v_ntop0,1596,$s))
variable      randnj equal round(random(v_ntop0,1596,234897))
variable      randatomj equal ${randnj}
variable      randatomj equal 1133
variable      randzj equal z[${randatomj}]
variable      randzj equal z[1133]
if            "${randzj} < $(v_wthick - 0.7)" then "jump MDPBB.in loopj"
jump MDPBB.in loopj
variable      randnj equal round(random(v_ntop0,$(v_ntop0 + v_nbwall0),$s))
variable      randnj equal round(random(v_ntop0,1596,$s))
variable      randnj equal round(random(v_ntop0,1596,234897))
variable      randatomj equal ${randnj}
variable      randatomj equal 1102
variable      randzj equal z[${randatomj}]
variable      randzj equal z[1102]
if            "${randzj} < $(v_wthick - 0.7)" then "jump MDPBB.in loopj"
jump MDPBB.in loopj
variable      randnj equal round(random(v_ntop0,$(v_ntop0 + v_nbwall0),$s))
variable      randnj equal round(random(v_ntop0,1596,$s))
variable      randnj equal round(random(v_ntop0,1596,234897))
variable      randatomj equal ${randnj}
variable      randatomj equal 1003
variable      randzj equal z[${randatomj}]
variable      randzj equal z[1003]
if            "${randzj} < $(v_wthick - 0.7)" then "jump MDPBB.in loopj"
jump MDPBB.in loopj
variable      randnj equal round(random(v_ntop0,$(v_ntop0 + v_nbwall0),$s))
variable      randnj equal round(random(v_ntop0,1596,$s))
variable      randnj equal round(random(v_ntop0,1596,234897))
variable      randatomj equal ${randnj}
variable      randatomj equal 1389
variable      randzj equal z[${randatomj}]
variable      randzj equal z[1389]
if            "${randzj} < $(v_wthick - 0.7)" then "jump MDPBB.in loopj"
jump MDPBB.in loopj
variable      randnj equal round(random(v_ntop0,$(v_ntop0 + v_nbwall0),$s))
variable      randnj equal round(random(v_ntop0,1596,$s))
variable      randnj equal round(random(v_ntop0,1596,234897))
variable      randatomj equal ${randnj}
variable      randatomj equal 1423
variable      randzj equal z[${randatomj}]
variable      randzj equal z[1423]
if            "${randzj} < $(v_wthick - 0.7)" then "jump MDPBB.in loopj"
set           atom ${randatomj} type 4
set           atom 1423 type 4
  1 settings made for type
group         bwg id ${randatomj}                         # Add this atom to a bot-wall-grafted group
group         bwg id 1423                         
9 atoms in group bwg
variable      bwgcount equal count(bwg)
print         "bwg contains ${bwgcount}"
bwg contains 9
print         "j = $(v_j)"
j = 9
variable      x0 equal x[${randatomj}]
variable      x0 equal x[1423]
variable      y0 equal y[${randatomj}]
variable      y0 equal y[1423]
variable      check0 equal ${check}
variable      check0 equal 1836
variable      b equal ${check}+1
variable      b equal 1836+1
if            "${bwgcount} != $(v_j)" then "jump MDPBB.in loopj"
create_atoms  1 single ${x0} ${y0} ${z0} mol bs 24987 units box remap yes rotate 0 0 0 1
create_atoms  1 single 2.3811015779523 ${y0} ${z0} mol bs 24987 units box remap yes rotate 0 0 0 1
create_atoms  1 single 2.3811015779523 6.3496042078728 ${z0} mol bs 24987 units box remap yes rotate 0 0 0 1
create_atoms  1 single 2.3811015779523 6.3496042078728 17 mol bs 24987 units box remap yes rotate 0 0 0 1
Created 30 atoms
  create_atoms CPU = 4.94e-05 secs
variable      check1 equal ${check}
variable      check1 equal 1866
if            "${check1} != ${check0}" then "create_bonds  single/bond 2 ${randatomj} $b" "next j"
create_bonds  single/bond 2 ${randatomj} $b
create_bonds  single/bond 2 1423 $b
create_bonds  single/bond 2 1423 1837
  2 = max # of 1-2 neighbors
  5 = max # of special neighbors
  special bonds CPU = 0.0018883 secs
next j
jump MDPBB.in loopj
variable      randnj equal round(random(v_ntop0,$(v_ntop0 + v_nbwall0),$s))
variable      randnj equal round(random(v_ntop0,1596,$s))
variable      randnj equal round(random(v_ntop0,1596,234897))
variable      randatomj equal ${randnj}
variable      randatomj equal 1166
variable      randzj equal z[${randatomj}]
[...]
 4957000    4.3794407    1.3770176    3.0024231  -0.18007039   0.91849616    1.2167574   0.78124523   -1.2345679            1    2.8890004    4.2315749    4.2063537   0.22907253 -0.015266914  0.014314912   0.18979171    2.7156798    2.7641403    0.6295744         0.05    1.9796234          0.5   0.10492907    4.7651239    2.4912834    29.186165 0.0040966655  -0.15613399 -0.054129692   0.12830026    3.4992849   0.71869907 
 4958000    4.4164483    1.4019985    3.0144498  -0.16073854    0.9351589    1.2310811   0.79900275   -1.2345679            1    2.9961648    4.2465041    4.3621559   0.37983451 -0.016189472  -0.16313898 -0.061214662    2.8189047    2.8698348    0.6428583         0.05    2.0134953          0.5   0.10714305    4.6666583     2.476166    29.186165  0.011302268  -0.19948955  -0.01274026   0.18339067    3.1523077  0.086276593 
 4959000    4.4484592    1.3977179    3.0507412  -0.15766481   0.93230367    1.2539361   0.78425309   -1.2345679            1    2.8740041      4.14741    4.2153494   0.25925299 -0.011772866 -0.027670467 -0.0067685338    2.7000162    2.7453288    0.6448169         0.05    2.0448654          0.5   0.10746948    4.6524835    2.4991921    29.186165 -0.034809648  -0.29340626 -0.00097401515   0.28549326   -1.5498257    1.9589072 
 4960000    4.3623442    1.3716015    2.9907427  -0.15842707   0.91488353    1.2477701    0.7616139   -1.2345679            1    2.9356921    4.2539256    4.2655941   0.28755647 -0.0023290108 -0.071548494  -0.29474581    2.7667267    2.8076495   0.62613095         0.05    2.0252752          0.5   0.10435516      4.79133    2.5072494    29.186165 0.0085305166  -0.17812479  0.017645365   0.19125587   0.20703068    1.6620806 
 4961000    4.4205853    1.4158716    3.0047137  -0.16965082   0.94441251     1.278693   0.79052093   -1.2345679            1    3.0613731     4.319423    4.4020542   0.46264213  -0.03649749  0.031447493   0.11510839    2.8859947    2.9301573   0.63676073         0.05    1.9883016          0.5   0.10612679    4.7113458    2.4798719    29.186165  0.010848149  -0.16702772 0.0052881191   0.16235181   -1.6861258  -0.52295336 
 4962000     4.407238    1.4095357    2.9977022  -0.18172971   0.94018637    1.2397201   0.80236357   -1.2345679            1    2.8656886    4.1174253    4.2539241   0.22571647 -0.020921423  0.088605731   0.03499601    2.6876829    2.7384721    0.6407778         0.05    1.9565045          0.5    0.1067963    4.6818101    2.4961735    29.186165 -0.0018613476  -0.18750781  0.018699286   0.14904925   -1.5512598    4.8971595 
 4963000    4.4046837    1.4134982    2.9911856  -0.16572701   0.94282939    1.2330116   0.80933419   -1.2345679            1    2.7266781    4.1301631    4.1132515 -0.063380321  0.015370542    0.2017441 -0.0090885137    2.5471259      2.60015   0.63617369         0.05    1.9691816          0.5   0.10602895    4.7156933    2.4812127    29.186165 -0.00035448197   -0.1557857 0.0044607465   0.25996205   -1.7804019   -4.8233635 
 4964000    4.3684093    1.3408586    3.0275507  -0.17005128   0.89437745    1.1712317   0.76700964   -1.2345679            1    2.8591683    4.1104534    4.2354153   0.23163616  0.012955007  -0.21703712 -0.0065348368    2.6890059    2.7389799   0.63047597         0.05    1.9667051          0.5   0.10507933    4.7583098    2.4749003    29.186165  0.015094647  -0.13747481 0.0091601481   0.16533067   0.16023041  -0.66939236 
 4965000    4.4314945    1.4073079    3.0241866  -0.18429183   0.93870038    1.1601167   0.83700951   -1.2345679            1    3.0892993    4.3100138    4.3921716   0.56571243   0.01662155  -0.29771428   0.01931586    2.9036073    2.9702514   0.64227331         0.05    2.0094865          0.5   0.10704555    4.6709087    2.5290165    29.186165  0.012471374  -0.14630156 -0.0091546798   0.19112231    2.3762695   -4.2673465 
 4966000    4.4333325    1.4116651    3.0216675   -0.1762004   0.94160666    1.2344596   0.80687518   -1.2345679            1    2.8130415    4.1487191     4.216166  0.074239302 -0.0044762643  -0.42314957  0.071729462    2.6340348    2.6863648   0.61424458         0.05    1.9952517          0.5    0.1023741     4.884048    2.4819137    29.186165 0.0097091949   -0.1292176 -0.017845318   0.14428613   0.39537597  -0.20860183 
 4967000    4.3766346    1.4169379    2.9596966  -0.17215679   0.94512378     1.269835   0.79565901   -1.2345679            1    2.9169872    4.2394346    4.2319843   0.27954271 -0.0026753865  0.010259648  0.029167767    2.7404689    2.7866804   0.62905843         0.05    2.0267721          0.5   0.10484307    4.7690324    2.4779253    29.186165 -0.0065856987  -0.15049741 -0.00073114635   0.15394764  -0.62644413   -2.1131687 
 4968000    4.4492729    1.4192494    3.0300235  -0.14889501   0.94666555    1.2842829   0.79123226   -1.2345679            1    2.8027939    4.1943735    4.1297948  0.084213545 -0.030387409 -0.027251005   0.22854201    2.6272577    2.6710045   0.63140726         0.05    2.0315625          0.5   0.10523454    4.7512916    2.4930954    29.186165 -0.012195652 -0.097378008 -0.0069400348   0.13302951    2.9937242   -5.4253468 
 4969000    4.4603849    1.3750834    3.0853015  -0.15379365   0.91720604    1.2234858   0.77624514   -1.2345679            1    2.9371167    4.2022864    4.3165374   0.29252616 -0.032266722  -0.17758979 -0.038091039    2.7649054    2.8115661   0.61162219         0.05    1.9997379          0.5   0.10193703    4.9049888    2.4766421    29.186165 -0.0029008188  -0.11416432 -0.010967824   0.18644309    0.7706676     5.249589 
 4970000    4.4304576    1.4240955    3.0063621  -0.16407585   0.94989799    1.2803321   0.79778976   -1.2345679            1    2.5378359    3.9100036    4.0120453  -0.30854122 -0.012164684 -0.050925956 -0.069260454    2.3608449    2.4064519   0.62709246         0.05    1.9033109          0.5   0.10451541    4.7839835    2.4905837    29.186165  0.007931843   -0.1371237   0.02727094     0.186362   -2.8258663   -2.5811215 
 4971000    4.4617385    1.4074333    3.0543051  -0.14970361   0.93878403      1.23282   0.80350314   -1.2345679            1    2.9091451    4.2051287    4.2654053    0.2569011 0.0036849546  -0.23345747  0.098393741    2.7308865    2.7826366   0.64543737         0.05    1.9910074          0.5   0.10757289     4.648011    2.4820662    29.186165  0.011268888  -0.24321884  0.028126519   0.18908019    1.0013602    2.3283421 
 4972000    4.5260579    1.4706686    3.0553893  -0.16142009   0.98096311    1.2519018   0.85639841   -1.2345679            1    3.1890053    4.4245865    4.4441072   0.69832234 -0.023957872 -0.088728702  0.025191025    2.9990119    3.0605388   0.64317863         0.05    1.9946678          0.5   0.10719644    4.6643341    2.5125201    29.186165   0.02188606  -0.24912879 -0.028887556   0.20672019    4.0044828    2.6583057 
 4973000    4.4589076    1.3986612    3.0602465  -0.15926797   0.93293284    1.2515897   0.78625909   -1.2345679            1    2.6943189    4.0775349     4.063054 -0.057632199   0.01367439  0.027552434 0.0083424781     2.519886    2.5658844   0.62670257         0.05    2.0000663          0.5   0.10445043    4.7869598    2.5072575    29.186165 0.00024840291  -0.19990769  0.019034904   0.16284183    3.6334389   -2.5731246 
 4974000    4.5154773    1.4099052    3.1055721  -0.16453753   0.94043283    1.2245769    0.8097287   -1.2345679            1    3.1546234    4.3903944    4.4018247   0.67165115 -0.022233414   0.27055889  0.024631079    2.9749837    3.0289608   0.63341782         0.05    1.9757941          0.5   0.10556964    4.7362103    2.4696872    29.186165 -0.036941819  -0.22051795  -0.01050127   0.22367508   -2.8065566     8.376077 
 4975000    4.4806522    1.4429571    3.0376951  -0.14881584   0.96247901    1.2807244    0.8160184   -1.2345679            1    3.3426898    4.5393861    4.5944795   0.89420378 -0.013312845    -0.045363  0.021898808    3.1616547    3.2112656   0.63956871         0.05    1.9634535          0.5   0.10659478     4.690661    2.4749235    29.186165  0.016699382  -0.21594014 -0.011956008   0.18067521   -3.5905624    2.6563803 
 4976000    4.4657012    1.4482097    3.0174915  -0.15661555   0.96598259    1.2964375   0.81387719   -1.2345679            1    3.0927794    4.3883958    4.3835912   0.50635121 -0.0052669908  -0.10113049 -0.019548244    2.9122194    2.9597427   0.63830522         0.05     1.991964          0.5    0.1063842    4.6999459    2.4797003    29.186165  0.015813573   -0.1827571 -0.0092027827   0.11167901   -1.1424624    1.3733689 
 4977000    4.4973061    1.4290844    3.0682218  -0.16869218   0.95322567     1.253245   0.81518832   -1.2345679            1    2.5440899    3.9425425    4.0088033  -0.31907603 -0.010741278  0.023185404 -0.078564209     2.363239    2.4154855   0.63043496         0.05    1.9795792          0.5   0.10507249    4.7586194    2.4840321    29.186165 -0.0091151445  -0.10440287 0.0024611573   0.20065321   -0.2925574   -6.1062024 
 4978000    4.4413711    1.4404306    3.0009405  -0.16424481    0.9607938    1.2542482   0.82579891   -1.2345679            1    3.3034763     4.528423    4.5324845   0.84952124  0.025704798  0.023048488   0.10961286    3.1202714    3.1747689   0.62699888         0.05    1.9376238          0.5   0.10449981    4.7846975    2.4744605    29.186165  0.019134767   -0.1336172 -0.0081900576   0.22129457  -0.96945763    3.7389448 
 4979000    4.4453995    1.4042321    3.0411674  -0.13794327   0.93664871    1.2197164   0.80643953   -1.2345679            1    3.2909084    4.5875165    4.5628828   0.72232602 -0.019098272  -0.14631363  0.028981063    3.1119985    3.1657447   0.63579058         0.05    1.9313959          0.5    0.1059651    4.7185348    2.4970271    29.186165  0.038506161  -0.18229317   -0.0314561   0.18581087   -2.0749229    6.7120143 
 4980000    4.4140033     1.394126    3.0198772  -0.15139688   0.92990782    1.1975353   0.80683529   -1.2345679            1     2.927151    4.2207153    4.3070548   0.25368294  0.015392817  -0.22524365   0.15076636    2.7481533    2.8042634   0.64066786         0.05    2.0231814          0.5   0.10677798    4.6826136    2.5160939    29.186165 -0.025762827  -0.19597046 -0.032220439   0.16798101   -3.4606791    5.6196061 
 4981000     4.406572    1.3886936    3.0178784  -0.15883129   0.92628428    1.2307868   0.78615244   -1.2345679            1    3.0890113    4.4374422    4.3526414   0.47695045 -0.059274571  -0.20160313  0.027030086    2.9146021    2.9627115   0.62705982         0.05     1.915894          0.5   0.10450997    4.7842326    2.4839896    29.186165 -0.0046934382  -0.14468458 -0.059556473   0.21164444   -1.0313062   -6.0913267 
 4982000    4.4198932    1.4451235    2.9747697  -0.15244236   0.96392405    1.2605289   0.82747434   -1.2345679            1    3.0237287    4.3225466    4.3293714   0.41926805 -0.042813764   0.16900655  -0.12468142    2.8401521    2.8943768   0.61077567         0.05    1.9404724          0.5   0.10179595     4.911787     2.488995    29.186165  0.006798607  -0.10284639 -0.016331831   0.19411128    3.7790962    5.2157455 
 4983000    4.4691597    1.4514361    3.0177235  -0.14741945   0.96813472    1.2649255   0.83160226   -1.2345679            1    2.6429027    4.0630385    4.0380157  -0.17234616  -0.01696449  -0.13771737  0.096328698    2.4584103    2.5130997   0.63015398         0.05    1.9462843          0.5   0.10502566    4.7607412    2.4740626    29.186165  0.042051747  -0.19510527  0.017276203   0.12026441    7.7456338    6.1386697 
 4984000    4.4086185    1.3892452    3.0193733  -0.16221367   0.92665219     1.228715    0.7876491   -1.2345679            1    3.0571868    4.3494036    4.3804921   0.44166474 -0.018970997   0.11308481  0.051972359    2.8824455    2.9310996   0.64566361         0.05    1.9340564          0.5    0.1076106    4.6463823    2.4772214    29.186165 -0.0057860238  -0.16762507 -0.021858679   0.22618559   0.30400058  -0.14224981 
 4985000    4.4799157    1.4270994    3.0528163  -0.16052351   0.95190164    1.2780493   0.80177768   -1.2345679            1    2.7792184    4.0835564    4.1802098  0.073889103 0.0041703931   0.42375789 -0.019825079    2.6013427    2.6480687   0.63178078         0.05    1.9243817          0.5    0.1052968    4.7484825    2.5009443    29.186165  -0.02883406  -0.22382528 0.00092085592   0.22478477   -7.5731666 -0.064488866 
 4986000    4.4336447    1.4271958    3.0064489  -0.15935629   0.95196596    1.2506394    0.8145502   -1.2345679            1    2.8646558    4.1946262    4.2562483   0.14309288 -0.020678102   0.16340125  0.057081896    2.6839464    2.7363188   0.63975283         0.05    1.9866013          0.5   0.10662547    4.6893111    2.4972547    29.186165 -0.012757138   -0.1353086  -0.02732085   0.19303056   -5.6016536    1.5675397 
 4987000     4.506093    1.4963547    3.0097383  -0.14974357    0.9980962    1.3113387   0.85397715   -1.2345679            1    2.9345423    4.2303707    4.2617452   0.31151113 -0.0032766686  0.078143117  0.097106276    2.7450861    2.7999766    0.6322631         0.05     1.975464          0.5   0.10537718    4.7448602    2.4801884    29.186165   0.01408108  -0.19161354 -0.030549326   0.24156968    1.9795453   -2.7069573 
 4988000     4.480958    1.4243856    3.0565724   -0.1367091    0.9500915    1.2348564   0.81910765   -1.2345679            1     3.100724    4.3655744    4.4174379   0.51915965  -0.02094991   0.12611114  0.021369609    2.9190036    2.9740066   0.63235122         0.05    1.9572174          0.5   0.10539187     4.744199    2.4874988    29.186165  0.051014543  -0.15936125 -0.011118968   0.20003102    2.1144846    1.3897246 
 4989000    4.3677919        1.365     3.002792  -0.16149155   0.91048019    1.2495256    0.7543584   -1.2345679            1    2.7429702    4.1103499    4.1050606  0.013500027  0.027044642  0.013974898  -0.10526024    2.5756145    2.6147475   0.63703037         0.05    1.9368411          0.5   0.10617173    4.7093516    2.4896733    29.186165 -0.0030761884  -0.17912047 -0.0061404235   0.23963445  -0.24480606   -4.1131252 
 4990000    4.4279404    1.3986545    3.0292859  -0.17273652   0.93292839    1.1897339   0.81486385   -1.2345679            1      2.77378     4.125446    4.1520686  0.043825471 -0.0081199969  -0.03056484  0.015138183    2.5930011    2.6516929   0.63004301         0.05     1.914695          0.5   0.10500717    4.7615797    2.4716607    29.186165 -0.017001276  -0.15525266  0.014737116   0.15340741   -3.1002229   0.86847705 
 4991000     4.426657    1.3889571    3.0376998  -0.14928816   0.92646007    1.1808493   0.80950819   -1.2345679            1    3.2493771    4.4498621    4.5436361   0.75463293 -0.020080938 -0.060510911 -0.023126911    3.0697863    3.1282017   0.63246132         0.05    2.0089351          0.5   0.10541022    4.7433731     2.481854    29.186165 0.0057659023  -0.21731698  0.026745856   0.24389094   -1.2477436    1.7797685 
 4992000    4.4462536    1.4190812    3.0271724   -0.1656453   0.94655339    1.2064236   0.82708182   -1.2345679            1    2.8828126    4.2094485    4.2461661   0.19282334  0.012374239   0.17644997  0.026623781    2.6993231    2.7590129   0.64308257         0.05    2.0450967          0.5   0.10718043    4.6650308     2.482674    29.186165 -0.032354341  -0.21076988   0.01050176  0.084332121  -0.78264546    3.3629338 
 4993000    4.4572811     1.440838     3.016443  -0.16510295   0.96106558    1.2400049   0.83278482   -1.2345679            1     2.667135    4.0643797    4.0828646  -0.14583942 -0.028140216   0.19398438  0.025259521    2.4823802    2.5398892   0.63365847         0.05    1.9899281          0.5   0.10560974    4.7344116    2.4881599    29.186165 0.0041924655  -0.19444219 -0.027558514   0.17077471    2.6354577   -2.2374846 
 4994000    4.3411274    1.3893725    2.9517549  -0.16228921   0.92673714    1.2686199   0.76931548   -1.2345679            1     3.136662    4.4010145    4.4046849   0.60428652 -0.012232819  0.022441649   0.22411674     2.965988    3.0064799   0.62979146         0.05    1.9890693          0.5   0.10496524    4.7634815    2.4599696    29.186165 0.0069630246  -0.16166357  0.013575092   0.18914278      0.74016     2.941404 
 4995000     4.415614    1.4185167    2.9970973  -0.17423734   0.94617687    1.2733643   0.79556752   -1.2345679            1    3.0438115    4.3713057    4.3459367   0.41419216  0.049643343 0.0040440057 0.0076826501    2.8673135    2.9131425   0.64312988         0.05     1.999702          0.5   0.10718831    4.6646876    2.4858766    29.186165 0.0064556396   -0.2013157  0.019011386   0.25276318   -2.2982575  -0.84534346 
 4996000    4.4990337    1.4816982    3.0173355  -0.16770045   0.98832009    1.3062333   0.84203305   -1.2345679            1    2.7929895    4.1314154    4.2385713  0.008981923 0.00020563987  0.058674742  -0.15404122    2.6061831    2.6589476   0.64555139         0.05    2.0069181          0.5    0.1075919    4.6471901    2.4772418    29.186165  0.014543115  -0.16780393 -0.022293332    0.1759377   -5.8146102    2.2567651 
 4997000    4.4649427    1.4212642    3.0436785   -0.1636588   0.94800948    1.2206598    0.8226276   -1.2345679            1     3.220098    4.4638181     4.454551   0.74192497 -0.026856474  -0.17967829  -0.15996311    3.0375967    3.0948374   0.64152001         0.05    1.9534608          0.5      0.10692    4.6763935    2.4933106    29.186165 0.0042947438  -0.17197016  0.016642655   0.24099553   -1.9192099    4.5845344 
 4998000    4.4358131    1.4303461     3.005467  -0.16800272   0.95406724    1.2272589   0.82843966   -1.2345679            1    2.9907062    4.2394442    4.3413101   0.39136441  0.010627572  -0.01830026 -0.051353035    2.8069155    2.8647685   0.63534593         0.05    1.9741432          0.5   0.10589099    4.7218371     2.489764    29.186165  0.016056717   -0.1983145   -0.0121112   0.13958595    2.4515973    3.0948734 
 4999000    4.4053388    1.4234248     2.981914  -0.15828428   0.94945065    1.2732859   0.80039441   -1.2345679            1     3.034909    4.3495402    4.3482804   0.40690638  0.014263963  0.095007499  0.005814586    2.8573402    2.9042481   0.63412194         0.05    1.9879906          0.5   0.10568699    4.7309513    2.4953208    29.186165   0.05889648  -0.24264436 -0.011409962   0.19497358    3.4945013    2.5824069 
 5000000    4.4460619    1.3891821    3.0568798  -0.17322044   0.92661012    1.2226964   0.79037143   -1.2345679            1    3.1409746    4.4129074    4.3596867   0.65032968 -0.013388162  -0.26355357  0.030590645    2.9656294     3.015505   0.64261481         0.05    1.8827782          0.5   0.10710247    4.6684265    2.4961532    29.186165  0.031416202   -0.2096605 -0.010459823   0.19818587    1.6717646    2.1155116 
Loop time of 1260.01 on 1 procs for 4000000 steps with 1896 atoms

Performance: 1371417.209 tau/day, 3174.577 timesteps/s
97.6% CPU use with 1 MPI tasks x 1 OpenMP threads

MPI task timing breakdown:
Section |  min time  |  avg time  |  max time  |%varavg| %total
---------------------------------------------------------------
Pair    | 101.83     | 101.83     | 101.83     |   0.0 |  8.08
Bond    | 348.24     | 348.24     | 348.24     |   0.0 | 27.64
Neigh   | 416.4      | 416.4      | 416.4      |   0.0 | 33.05
Comm    | 38.531     | 38.531     | 38.531     |   0.0 |  3.06
Output  | 6.3871     | 6.3871     | 6.3871     |   0.0 |  0.51
Modify  | 316.15     | 316.15     | 316.15     |   0.0 | 25.09
Other   |            | 32.47      |            |       |  2.58

Nlocal:    1896 ave 1896 max 1896 min
Histogram: 1 0 0 0 0 0 0 0 0 0
Nghost:    736 ave 736 max 736 min
Histogram: 1 0 0 0 0 0 0 0 0 0
Neighs:    2183 ave 2183 max 2183 min
Histogram: 1 0 0 0 0 0 0 0 0 0

Total # of neighbors = 2183
Ave neighs/atom = 1.15137
Ave special neighs/atom = 7.46835
Neighbor list builds = 553702
Dangerous builds = 0
