9376
Atoms. Timestep: 70000
1 0 3.55271e-15 17.5189
1 0.793701 29.2063 17.5189
1 0.834657 29.9701 16.7011
1 0.056059 29.181 16.6882
1 1.5874 3.55271e-15 17.5189
1 2.3811 29.2063 17.5189
1 2.42949 29.94 16.706
1 1.61124 29.2053 16.6897
1 3.1748 3.55271e-15 17.5189
1 3.9685 29.2063 17.5189
1 3.99619 29.9513 16.6685
1 3.18878 29.1806 16.6777
1 4.7622 3.55271e-15 17.5189
1 5.5559 29.2063 17.5189
1 5.55936 29.9483 16.6998
1 4.74974 29.1967 16.7123
1 6.3496 3.55271e-15 17.5189
1 7.1433 29.2063 17.5189
1 7.12245 29.9239 16.6776
1 6.36175 29.1753 16.7197
1 7.93701 3.55271e-15 17.5189
1 8.73071 29.2063 17.5189
1 8.70199 29.9503 16.6941
1 7.93635 29.1529 16.7079
1 9.52441 3.55271e-15 17.5189
1 10.3181 29.2063 17.5189
1 10.3235 29.926 16.7049
1 9.50781 29.1735 16.7407
1 11.1118 3.55271e-15 17.5189
1 11.9055 29.2063 17.5189
1 11.9099 29.9246 16.6822
1 11.132 29.1793 16.7253
1 12.6992 3.55271e-15 17.5189
1 13.4929 29.2063 17.5189
1 13.498 29.9165 16.6789
1 12.7012 29.1818 16.7047
1 14.2866 3.55271e-15 17.5189
1 15.0803 29.2063 17.5189
1 15.0844 29.9324 16.7047
1 14.294 29.1673 16.7549
1 15.874 3.55271e-15 17.5189
1 16.6677 29.2063 17.5189
1 16.6435 29.9262 16.7099
1 15.8969 29.1526 16.7206
1 17.4614 3.55271e-15 17.5189
1 18.2551 29.2063 17.5189
1 18.2596 29.9359 16.6966
1 17.4639 29.1757 16.7379
1 19.0488 3.55271e-15 17.5189
1 19.8425 29.2063 17.5189
1 19.8428 29.9496 16.6941
1 19.0418 29.1793 16.7108
1 20.6362 3.55271e-15 17.5189
1 21.4299 29.2063 17.5189
1 21.4385 29.9393 16.7271
1 20.617 29.1902 16.7087
1 22.2236 3.55271e-15 17.5189
1 23.0173 29.2063 17.5189
1 23.0579 29.9502 16.6961
1 22.2261 29.1853 16.7014
1 23.811 3.55271e-15 17.5189
1 24.6047 29.2063 17.5189
1 24.612 29.9547 16.696
1 23.8294 29.1764 16.707
1 25.3984 3.55271e-15 17.5189
1 26.1921 29.2063 17.5189
1 26.2029 29.9555 16.6984
1 25.4197 29.175 16.6995
1 26.9858 3.55271e-15 17.5189
1 27.7795 29.2063 17.5189
1 27.7704 29.9514 16.6841
1 27.0085 29.1879 16.7109
1 28.5732 3.55271e-15 17.5189
1 29.3669 29.2063 17.5189
1 29.3017 29.9222 16.6655
1 28.5492 29.1759 16.7319
1 0 28.4126 17.5189
1 0.793701 27.6189 17.5189
1 0.852548 28.3976 16.6999
1 0.0601812 27.6232 16.7009
1 1.5874 28.4126 17.5189
1 2.3811 27.6189 17.5189
1 2.35292 28.3949 16.7325
1 1.58455 27.6031 16.6938
1 3.1748 28.4126 17.5189
1 3.9685 27.6189 17.5189
1 3.96884 28.3963 16.7412
1 3.18758 27.6228 16.7351
1 4.7622 28.4126 17.5189
1 5.5559 27.6189 17.5189
1 5.57413 28.4188 16.6927
1 4.76264 27.6252 16.7486
1 6.3496 28.4126 17.5189
1 7.1433 27.6189 17.5189
1 7.16324 28.3623 16.7392
1 6.32391 27.6074 16.7224
1 7.93701 28.4126 17.5189
1 8.73071 27.6189 17.5189
1 8.72399 28.4011 16.7171
1 7.93266 27.5703 16.7026
1 9.52441 28.4126 17.5189
1 10.3181 27.6189 17.5189
1 10.3246 28.4104 16.7204
1 9.51595 27.6239 16.7239
1 11.1118 28.4126 17.5189
1 11.9055 27.6189 17.5189
1 11.9144 28.3762 16.7176
1 11.0982 27.6019 16.7355
1 12.6992 28.4126 17.5189
1 13.4929 27.6189 17.5189
1 13.4884 28.3801 16.7432
1 12.7018 27.5926 16.7314
1 14.2866 28.4126 17.5189
1 15.0803 27.6189 17.5189
1 15.0744 28.3945 16.7272
1 14.2816 27.6011 16.7179
1 15.874 28.4126 17.5189
1 16.6677 27.6189 17.5189
1 16.6517 28.3523 16.7104
1 15.8788 27.6425 16.751
1 17.4614 28.4126 17.5189
1 18.2551 27.6189 17.5189
1 18.2527 28.386 16.7144
1 17.4464 27.6044 16.7361
1 19.0488 28.4126 17.5189
1 19.8425 27.6189 17.5189
1 19.842 28.4122 16.7074
1 19.0766 27.6225 16.744
1 20.6362 28.4126 17.5189
1 21.4299 27.6189 17.5189
1 21.4462 28.3776 16.7287
1 20.6377 27.6094 16.7153
1 22.2236 28.4126 17.5189
1 23.0173 27.6189 17.5189
1 23.0218 28.4046 16.7511
1 22.2137 27.6119 16.6978
1 23.811 28.4126 17.5189
1 24.6047 27.6189 17.5189
1 24.6043 28.4115 16.7199
1 23.8322 27.5982 16.7239
1 25.3984 28.4126 17.5189
1 26.1921 27.6189 17.5189
1 26.2094 28.4139 16.7316
1 25.4009 27.62 16.6908
1 26.9858 28.4126 17.5189
1 27.7795 27.6189 17.5189
1 27.774 28.4039 16.7395
1 27 27.6116 16.7362
1 28.5732 28.4126 17.5189
1 29.3669 27.6189 17.5189
1 29.3087 28.3991 16.6953
1 28.5497 27.6178 16.734
1 0 26.8252 17.5189
1 0.793701 26.0315 17.5189
1 0.822645 26.7918 16.7049
1 0.0628086 26.01 16.6867
1 1.5874 26.8252 17.5189
1 2.3811 26.0315 17.5189
1 2.39776 26.8324 16.7177
1 1.60661 26.0034 16.7458
1 3.1748 26.8252 17.5189
1 3.9685 26.0315 17.5189
1 3.98223 26.8116 16.7397
1 3.17415 26.0092 16.7034
1 4.7622 26.8252 17.5189
1 5.5559 26.0315 17.5189
1 5.54565 26.8349 16.7039
1 4.77206 26.0203 16.7273
1 6.3496 26.8252 17.5189
1 7.1433 26.0315 17.5189
1 7.1492 26.825 16.7509
1 6.34067 26.0465 16.7199
1 7.93701 26.8252 17.5189
1 8.73071 26.0315 17.5189
1 8.72838 26.8308 16.7358
1 7.93975 26.0528 16.7262
1 9.52441 26.8252 17.5189
1 10.3181 26.0315 17.5189
1 10.3043 26.8194 16.7213
1 9.49555 26.0295 16.7065
1 11.1118 26.8252 17.5189
1 11.9055 26.0315 17.5189
1 11.9018 26.8361 16.736
1 11.0934 26.0293 16.7115
1 12.6992 26.8252 17.5189
1 13.4929 26.0315 17.5189
1 13.4958 26.7934 16.7306
1 12.7073 26.0078 16.7109
1 14.2866 26.8252 17.5189
1 15.0803 26.0315 17.5189
1 15.072 26.8189 16.741
1 14.2855 26.0147 16.7192
1 15.874 26.8252 17.5189
1 16.6677 26.0315 17.5189
1 16.67 26.7981 16.7186
1 15.8903 26.0132 16.7182
1 17.4614 26.8252 17.5189
1 18.2551 26.0315 17.5189
1 18.2608 26.8248 16.7452
1 17.4562 26.0619 16.7291
1 19.0488 26.8252 17.5189
1 19.8425 26.0315 17.5189
1 19.8181 26.8146 16.7334
1 19.0707 26.0321 16.7236
1 20.6362 26.8252 17.5189
1 21.4299 26.0315 17.5189
1 21.4191 26.8166 16.6976
1 20.6464 26.0257 16.7418
1 22.2236 26.8252 17.5189
1 23.0173 26.0315 17.5189
1 23.0265 26.8228 16.6966
1 22.2461 26.0311 16.7231
1 23.811 26.8252 17.5189
1 24.6047 26.0315 17.5189
1 24.621 26.8016 16.7195
1 23.8097 25.9956 16.7197
1 25.3984 26.8252 17.5189
1 26.1921 26.0315 17.5189
1 26.2126 26.835 16.7238
1 25.4024 26.0224 16.7389
1 26.9858 26.8252 17.5189
1 27.7795 26.0315 17.5189
1 27.7434 26.8252 16.7247
1 26.9489 26.0105 16.7115
1 28.5732 26.8252 17.5189
1 29.3669 26.0315 17.5189
1 29.2923 26.8579 16.6852
1 28.5492 26.0479 16.716
1 0 25.2378 17.5189
1 0.793701 24.4441 17.5189
1 0.828969 25.2313 16.729
1 0.0749985 24.4626 16.6917
1 1.5874 25.2378 17.5189
1 2.3811 24.4441 17.5189
1 2.38012 25.2197 16.7212
1 1.60926 24.4168 16.702
1 3.1748 25.2378 17.5189
1 3.9685 24.4441 17.5189
1 4.00145 25.2422 16.717
1 3.21007 24.428 16.7206
1 4.7622 25.2378 17.5189
1 5.5559 24.4441 17.5189
1 5.54576 25.2322 16.7136
1 4.76519 24.4478 16.7274
1 6.3496 25.2378 17.5189
1 7.1433 24.4441 17.5189
1 7.14653 25.228 16.7085
1 6.36097 24.4412 16.7136
1 7.93701 25.2378 17.5189
1 8.73071 24.4441 17.5189
1 8.72924 25.237 16.7158
1 7.96681 24.4426 16.7469
1 9.52441 25.2378 17.5189
1 10.3181 24.4441 17.5189
1 10.2939 25.2375 16.7148
1 9.50563 24.4359 16.7424
1 11.1118 25.2378 17.5189
1 11.9055 24.4441 17.5189
1 11.8894 25.2408 16.7207
1 11.1377 24.4336 16.7108
1 12.6992 25.2378 17.5189
1 13.4929 24.4441 17.5189
1 13.4746 25.2251 16.7119
1 12.7047 24.4393 16.7394
1 14.2866 25.2378 17.5189
1 15.0803 24.4441 17.5189
1 15.0865 25.2327 16.7517
1 14.269 24.4622 16.7328
1 15.874 25.2378 17.5189
1 16.6677 24.4441 17.5189
1 16.68 25.2327 16.7177
1 15.8743 24.4392 16.7256
1 17.4614 25.2378 17.5189
1 18.2551 24.4441 17.5189
1 18.2353 25.2464 16.7425
1 17.4561 24.4305 16.7415
1 19.0488 25.2378 17.5189
1 19.8425 24.4441 17.5189
1 19.8559 25.2298 16.7212
1 19.0537 24.4442 16.7012
1 20.6362 25.2378 17.5189
1 21.4299 24.4441 17.5189
1 21.4354 25.2542 16.7254
1 20.6537 24.4549 16.7139
1 22.2236 25.2378 17.5189
1 23.0173 24.4441 17.5189
1 23.003 25.2375 16.7345
1 22.2132 24.4245 16.7198
1 23.811 25.2378 17.5189
1 24.6047 24.4441 17.5189
1 24.6051 25.2414 16.7181
1 23.8214 24.4316 16.7142
1 25.3984 25.2378 17.5189
1 26.1921 24.4441 17.5189
1 26.1886 25.2417 16.7144
1 25.3837 24.4302 16.7405
1 26.9858 25.2378 17.5189
1 27.7795 24.4441 17.5189
1 27.7635 25.2451 16.7184
1 26.9801 24.4552 16.746
1 28.5732 25.2378 17.5189
1 29.3669 24.4441 17.5189
1 29.3091 25.2401 16.7133
1 28.5286 24.438 16.7315
1 0 23.6504 17.5189
1 0.793701 22.8567 17.5189
1 0.831606 23.651 16.7155
1 0.0897845 22.8623 16.6983
1 1.5874 23.6504 17.5189
1 2.3811 22.8567 17.5189
1 2.40894 23.6469 16.7212
1 1.60664 22.8792 16.7339
1 3.1748 23.6504 17.5189
1 3.9685 22.8567 17.5189
1 3.9919 23.6507 16.7139
1 3.18792 22.8471 16.6969
1 4.7622 23.6504 17.5189
1 5.5559 22.8567 17.5189
1 5.55881 23.6502 16.7283
1 4.77739 22.8599 16.728
1 6.3496 23.6504 17.5189
1 7.1433 22.8567 17.5189
1 7.13771 23.6401 16.7328
1 6.36979 22.8533 16.7313
1 7.93701 23.6504 17.5189
1 8.73071 22.8567 17.5189
1 8.73612 23.6615 16.7156
1 7.92426 22.8537 16.7469
1 9.52441 23.6504 17.5189
1 10.3181 22.8567 17.5189
1 10.323 23.6393 16.7296
1 9.50151 22.8543 16.7119
1 11.1118 23.6504 17.5189
1 11.9055 22.8567 17.5189
1 11.9069 23.6409 16.7324
1 11.1327 22.8469 16.7386
1 12.6992 23.6504 17.5189
1 13.4929 22.8567 17.5189
1 13.4809 23.6372 16.7215
1 12.6957 22.8645 16.7052
1 14.2866 23.6504 17.5189
1 15.0803 22.8567 17.5189
1 15.0883 23.6599 16.726
1 14.3024 22.8546 16.7382
1 15.874 23.6504 17.5189
1 16.6677 22.8567 17.5189
1 16.6358 23.6549 16.7301
1 15.8734 22.8539 16.7308
1 17.4614 23.6504 17.5189
1 18.2551 22.8567 17.5189
1 18.2684 23.6518 16.7219
1 17.4332 22.8487 16.7164
1 19.0488 23.6504 17.5189
1 19.8425 22.8567 17.5189
1 19.8627 23.6666 16.7222
1 19.0549 22.8734 16.741
1 20.6362 23.6504 17.5189
1 21.4299 22.8567 17.5189
1 21.4206 23.6304 16.7277
1 20.6198 22.8446 16.7338
1 22.2236 23.6504 17.5189
1 23.0173 22.8567 17.5189
1 23.01 23.6397 16.7177
1 22.2105 22.7996 16.7227
1 23.811 23.6504 17.5189
1 24.6047 22.8567 17.5189
1 24.5893 23.609 16.7559
1 23.8109 22.8658 16.7331
1 25.3984 23.6504 17.5189
1 26.1921 22.8567 17.5189
1 26.1946 23.6716 16.7223
1 25.3896 22.8534 16.751
1 26.9858 23.6504 17.5189
1 27.7795 22.8567 17.5189
1 27.7425 23.6686 16.7073
1 26.9626 22.8728 16.729
1 28.5732 23.6504 17.5189
1 29.3669 22.8567 17.5189
1 29.3003 23.6506 16.6828
1 28.5472 22.8633 16.7264
1 0 22.063 17.5189
1 0.793701 21.2693 17.5189
1 0.843061 22.0707 16.7383
1 0.0710229 21.2928 16.7139
1 1.5874 22.063 17.5189
1 2.3811 21.2693 17.5189
1 2.4171 22.0612 16.727
1 1.6183 21.2875 16.735
1 3.1748 22.063 17.5189
1 3.9685 21.2693 17.5189
1 3.97881 22.0892 16.7377
1 3.17059 21.2691 16.7001
1 4.7622 22.063 17.5189
1 5.5559 21.2693 17.5189
1 5.5592 22.0654 16.7193
1 4.76696 21.275 16.696
1 6.3496 22.063 17.5189
1 7.1433 21.2693 17.5189
1 7.14204 22.0728 16.7347
1 6.35263 21.2553 16.7189
1 7.93701 22.063 17.5189
1 8.73071 21.2693 17.5189
1 8.73088 22.0479 16.7295
1 7.94326 21.2763 16.7272
1 9.52441 22.063 17.5189
1 10.3181 21.2693 17.5189
1 10.3054 22.0593 16.7353
1 9.52104 21.2858 16.7253
1 11.1118 22.063 17.5189
1 11.9055 21.2693 17.5189
1 11.9233 22.0739 16.7216
1 11.1401 21.2844 16.7087
1 12.6992 22.063 17.5189
1 13.4929 21.2693 17.5189
1 13.4895 22.0709 16.7279
1 12.6933 21.2491 16.7247
1 14.2866 22.063 17.5189
1 15.0803 21.2693 17.5189
1 15.1053 22.0644 16.7339
1 14.3141 21.2909 16.7067
1 15.874 22.063 17.5189
1 16.6677 21.2693 17.5189
1 16.6531 22.0526 16.7413
1 15.8699 21.269 16.7209
1 17.4614 22.063 17.5189
1 18.2551 21.2693 17.5189
1 18.2808 22.0648 16.7185
1 17.4898 21.2514 16.7309
1 19.0488 22.063 17.5189
1 19.8425 21.2693 17.5189
1 19.8358 22.0751 16.7259
1 19.04 21.2518 16.7195
1 20.6362 22.063 17.5189
1 21.4299 21.2693 17.5189
1 21.4277 22.054 16.7257
1 20.634 21.2619 16.7183
1 22.2236 22.063 17.5189
1 23.0173 21.2693 17.5189
1 23.0314 22.0564 16.7135
1 22.2019 21.2384 16.7055
1 23.811 22.063 17.5189
1 24.6047 21.2693 17.5189
1 24.589 22.0645 16.7168
1 23.7835 21.2474 16.7342
1 25.3984 22.063 17.5189
1 26.1921 21.2693 17.5189
1 26.1843 22.0741 16.7145
1 25.4 21.2672 16.7286
1 26.9858 22.063 17.5189
1 27.7795 21.2693 17.5189
1 27.7372 22.056 16.7191
1 26.9928 21.2677 16.734
1 28.5732 22.063 17.5189
1 29.3669 21.2693 17.5189
1 29.2864 22.0749 16.6923
1 28.5571 21.2548 16.714
1 0 20.4756 17.5189
1 0.793701 19.6819 17.5189
1 0.808475 20.4639 16.7152
1 0.0845194 19.6821 16.718
1 1.5874 20.4756 17.5189
1 2.3811 19.6819 17.5189
1 2.38928 20.4815 16.7159
1 1.61185 19.6693 16.7464
1 3.1748 20.4756 17.5189
1 3.9685 19.6819 17.5189
1 3.97581 20.4868 16.6954
1 3.19492 19.6603 16.707
1 4.7622 20.4756 17.5189
1 5.5559 19.6819 17.5189
1 5.56086 20.4828 16.7011
1 4.77072 19.6626 16.7042
1 6.3496 20.4756 17.5189
1 7.1433 19.6819 17.5189
1 7.13406 20.484 16.7116
1 6.34225 19.6719 16.7284
1 7.93701 20.4756 17.5189
1 8.73071 19.6819 17.5189
1 8.75156 20.4775 16.7419
1 7.95258 19.6859 16.7281
1 9.52441 20.4756 17.5189
1 10.3181 19.6819 17.5189
1 10.3128 20.4867 16.7474
1 9.51599 19.6884 16.736
1 11.1118 20.4756 17.5189
1 11.9055 19.6819 17.5189
1 11.9158 20.4793 16.7398
1 11.1073 19.6973 16.7466
1 12.6992 20.4756 17.5189
1 13.4929 19.6819 17.5189
1 13.5025 20.5058 16.7279
1 12.6955 19.6849 16.7166
1 14.2866 20.4756 17.5189
1 15.0803 19.6819 17.5189
1 15.0535 20.4961 16.7315
1 14.2779 19.699 16.7215
1 15.874 20.4756 17.5189
1 16.6677 19.6819 17.5189
1 16.6821 20.4617 16.7111
1 15.8601 19.687 16.7174
1 17.4614 20.4756 17.5189
1 18.2551 19.6819 17.5189
1 18.2578 20.4806 16.7007
1 17.4668 19.6867 16.7472
1 19.0488 20.4756 17.5189
1 19.8425 19.6819 17.5189
1 19.8451 20.4553 16.7421
1 19.0413 19.6803 16.7225
1 20.6362 20.4756 17.5189
1 21.4299 19.6819 17.5189
1 21.4275 20.4667 16.7221
1 20.6418 19.6782 16.7068
1 22.2236 20.4756 17.5189
1 23.0173 19.6819 17.5189
1 23.005 20.4591 16.7222
1 22.2283 19.6753 16.7456
1 23.811 20.4756 17.5189
1 24.6047 19.6819 17.5189
1 24.6026 20.4551 16.7231
1 23.8207 19.6759 16.743
1 25.3984 20.4756 17.5189
1 26.1921 19.6819 17.5189
1 26.1721 20.4835 16.7456
1 25.3813 19.6791 16.7277
1 26.9858 20.4756 17.5189
1 27.7795 19.6819 17.5189
1 27.7665 20.4662 16.7087
1 26.9727 19.6752 16.726
1 28.5732 20.4756 17.5189
1 29.3669 19.6819 17.5189
1 29.3101 20.4448 16.7086
1 28.5238 19.6723 16.7202
1 0 18.8882 17.5189
1 0.793701 18.0945 17.5189
1 0.840998 18.8868 16.7143
1 0.054411 18.1086 16.6854
1 1.5874 18.8882 17.5189
1 2.3811 18.0945 17.5189
1 2.39551 18.9116 16.6984
1 1.61213 18.111 16.7235
1 3.1748 18.8882 17.5189
1 3.9685 18.0945 17.5189
1 4.00708 18.8849 16.7279
1 3.17369 18.1053 16.7217
1 4.7622 18.8882 17.5189
1 5.5559 18.0945 17.5189
1 5.56146 18.8731 16.7368
1 4.77016 18.0743 16.7399
1 6.3496 18.8882 17.5189
1 7.1433 18.0945 17.5189
1 7.13917 18.8874 16.7352
1 6.3385 18.0945 16.7558
1 7.93701 18.8882 17.5189
1 8.73071 18.0945 17.5189
1 8.75432 18.8965 16.7279
1 7.95857 18.076 16.7334
1 9.52441 18.8882 17.5189
1 10.3181 18.0945 17.5189
1 10.3286 18.8679 16.7422
1 9.50433 18.0909 16.7102
1 11.1118 18.8882 17.5189
1 11.9055 18.0945 17.5189
1 11.8995 18.8715 16.7247
1 11.0872 18.0809 16.7169
1 12.6992 18.8882 17.5189
1 13.4929 18.0945 17.5189
1 13.5009 18.8894 16.7267
1 12.7101 18.0811 16.7161
1 14.2866 18.8882 17.5189
1 15.0803 18.0945 17.5189
1 15.0666 18.8948 16.7313
1 14.2575 18.0939 16.7258
1 15.874 18.8882 17.5189
1 16.6677 18.0945 17.5189
1 16.666 18.8743 16.6993
1 15.9068 18.0886 16.7369
1 17.4614 18.8882 17.5189
1 18.2551 18.0945 17.5189
1 18.2683 18.8527 16.7203
1 17.4726 18.0866 16.7289
1 19.0488 18.8882 17.5189
1 19.8425 18.0945 17.5189
1 19.8239 18.8813 16.7088
1 19.0506 18.0901 16.7256
1 20.6362 18.8882 17.5189
1 21.4299 18.0945 17.5189
1 21.4423 18.8727 16.7195
1 20.6247 18.0956 16.6935
1 22.2236 18.8882 17.5189
1 23.0173 18.0945 17.5189
1 23.0363 18.8812 16.7307
1 22.2319 18.0834 16.7066
1 23.811 18.8882 17.5189
1 24.6047 18.0945 17.5189
1 24.6373 18.8746 16.716
1 23.8243 18.0991 16.7339
1 25.3984 18.8882 17.5189
1 26.1921 18.0945 17.5189
1 26.1905 18.8793 16.745
1 25.398 18.0893 16.7227
1 26.9858 18.8882 17.5189
1 27.7795 18.0945 17.5189
1 27.7705 18.8866 16.7203
1 26.9752 18.0718 16.7267
1 28.5732 18.8882 17.5189
1 29.3669 18.0945 17.5189
1 29.3152 18.8971 16.6985
1 28.5304 18.0964 16.7279
1 0 17.3008 17.5189
1 0.793701 16.5071 17.5189
1 0.817242 17.3084 16.7265
1 0.0685466 16.5094 16.6959
1 1.5874 17.3008 17.5189
1 2.3811 16.5071 17.5189
1 2.39742 17.2933 16.7192
1 1.5939 16.5186 16.7082
1 3.1748 17.3008 17.5189
1 3.9685 16.5071 17.5189
1 3.97533 17.2978 16.7076
1 3.17409 16.4983 16.7316
1 4.7622 17.3008 17.5189
1 5.5559 16.5071 17.5189
1 5.54499 17.3069 16.7046
1 4.7672 16.512 16.716
1 6.3496 17.3008 17.5189
1 7.1433 16.5071 17.5189
1 7.11497 17.2672 16.7603
1 6.3211 16.5076 16.7212
1 7.93701 17.3008 17.5189
1 8.73071 16.5071 17.5189
1 8.73419 17.2728 16.7295
1 7.92398 16.5066 16.7323
1 9.52441 17.3008 17.5189
1 10.3181 16.5071 17.5189
1 10.3241 17.2654 16.7546
1 9.50691 16.4905 16.7537
1 11.1118 17.3008 17.5189
1 11.9055 16.5071 17.5189
1 11.8921 17.3117 16.7387
1 11.1064 16.5178 16.7368
1 12.6992 17.3008 17.5189
1 13.4929 16.5071 17.5189
1 13.5033 17.2925 16.7271
1 12.7086 16.5178 16.7629
1 14.2866 17.3008 17.5189
1 15.0803 16.5071 17.5189
1 15.1014 17.3182 16.724
1 14.2958 16.4993 16.7138
1 15.874 17.3008 17.5189
1 16.6677 16.5071 17.5189
1 16.6624 17.2998 16.7375
1 15.8691 16.5016 16.7268
1 17.4614 17.3008 17.5189
1 18.2551 16.5071 17.5189
1 18.268 17.3028 16.7162
1 17.4483 16.5034 16.7297
1 19.0488 17.3008 17.5189
1 19.8425 16.5071 17.5189
1 19.8494 17.3115 16.717
1 19.065 16.5163 16.7298
1 20.6362 17.3008 17.5189
1 21.4299 16.5071 17.5189
1 21.4378 17.2965 16.6874
1 20.6765 16.5008 16.7158
1 22.2236 17.3008 17.5189
1 23.0173 16.5071 17.5189
1 23.0149 17.2675 16.7197
1 22.212 16.4875 16.7235
1 23.811 17.3008 17.5189
1 24.6047 16.5071 17.5189
1 24.5958 17.298 16.7176
1 23.8063 16.4886 16.7343
1 25.3984 17.3008 17.5189
1 26.1921 16.5071 17.5189
1 26.1922 17.2828 16.7326
1 25.4092 16.4942 16.7118
1 26.9858 17.3008 17.5189
1 27.7795 16.5071 17.5189
1 27.7386 17.2998 16.7257
1 26.9869 16.4876 16.7439
1 28.5732 17.3008 17.5189
1 29.3669 16.5071 17.5189
1 29.2888 17.277 16.697
1 28.5373 16.4907 16.7197
1 0 15.7134 17.5189
1 0.793701 14.9197 17.5189
1 0.839573 15.735 16.692
1 0.0753452 14.948 16.6802
1 1.5874 15.7134 17.5189
1 2.3811 14.9197 17.5189
1 2.38694 15.7333 16.732
1 1.63403 14.93 16.7221
1 3.1748 15.7134 17.5189
1 3.9685 14.9197 17.5189
1 4.00293 15.7069 16.7304
1 3.2017 14.9272 16.7196
1 4.7622 15.7134 17.5189
1 5.5559 14.9197 17.5189
1 5.55012 15.717 16.7113
1 4.77039 14.913 16.7545
1 6.3496 15.7134 17.5189
1 7.1433 14.9197 17.5189
1 7.1363 15.7385 16.7351
1 6.36645 14.9212 16.7241
1 7.93701 15.7134 17.5189
1 8.73071 14.9197 17.5189
1 8.72014 15.7286 16.7145
1 7.92279 14.932 16.7245
1 9.52441 15.7134 17.5189
1 10.3181 14.9197 17.5189
1 10.3135 15.7352 16.712
1 9.52357 14.9309 16.7157
1 11.1118 15.7134 17.5189
1 11.9055 14.9197 17.5189
1 11.9247 15.7335 16.7274
1 11.114 14.9434 16.7122
1 12.6992 15.7134 17.5189
1 13.4929 14.9197 17.5189
1 13.508 15.7284 16.7344
1 12.7033 14.9316 16.7514
1 14.2866 15.7134 17.5189
1 15.0803 14.9197 17.5189
1 15.0778 15.7124 16.7344
1 14.3037 14.9441 16.7295
1 15.874 15.7134 17.5189
1 16.6677 14.9197 17.5189
1 16.6531 15.6832 16.7213
1 15.8621 14.9053 16.7297
1 17.4614 15.7134 17.5189
1 18.2551 14.9197 17.5189
1 18.2638 15.7008 16.7129
1 17.4479 14.9311 16.7208
1 19.0488 15.7134 17.5189
1 19.8425 14.9197 17.5189
1 19.8613 15.7201 16.7303
1 19.061 14.9242 16.7215
1 20.6362 15.7134 17.5189
1 21.4299 14.9197 17.5189
1 21.4182 15.7024 16.721
1 20.6235 14.9159 16.7261
1 22.2236 15.7134 17.5189
1 23.0173 14.9197 17.5189
1 23.0094 15.6943 16.7193
1 22.2231 14.8938 16.7252
1 23.811 15.7134 17.5189
1 24.6047 14.9197 17.5189
1 24.6014 15.6859 16.7281
1 23.8099 14.9305 16.7004
1 25.3984 15.7134 17.5189
1 26.1921 14.9197 17.5189
1 26.2045 15.7399 16.7165
1 25.4122 14.8923 16.7168
1 26.9858 15.7134 17.5189
1 27.7795 14.9197 17.5189
1 27.788 15.695 16.716
1 26.997 14.9386 16.7244
1 28.5732 15.7134 17.5189
1 29.3669 14.9197 17.5189
1 29.3244 15.6887 16.6947
1 28.5564 14.9175 16.691
1 0 14.126 17.5189
1 0.793701 13.3323 17.5189
1 0.846088 14.1288 16.7258
1 0.075568 13.3276 16.6835
1 1.5874 14.126 17.5189
1 2.3811 13.3323 17.5189
1 2.42409 14.1442 16.6981
1 1.62853 13.3328 16.7071
1 3.1748 14.126 17.5189
1 3.9685 13.3323 17.5189
1 3.97888 14.1404 16.7288
1 3.1902 13.3234 16.7508
1 4.7622 14.126 17.5189
1 5.5559 13.3323 17.5189
1 5.55284 14.1008 16.7417
1 4.75696 13.3134 16.7135
1 6.3496 14.126 17.5189
1 7.1433 13.3323 17.5189
1 7.14844 14.1298 16.7383
1 6.34262 13.3329 16.7573
1 7.93701 14.126 17.5189
1 8.73071 13.3323 17.5189
1 8.74588 14.1498 16.7446
1 7.95197 13.3509 16.7298
1 9.52441 14.126 17.5189
1 10.3181 13.3323 17.5189
1 10.3193 14.138 16.7572
1 9.50574 13.3532 16.7138
1 11.1118 14.126 17.5189
1 11.9055 13.3323 17.5189
1 11.8998 14.1535 16.7447
1 11.1097 13.3321 16.7353
1 12.6992 14.126 17.5189
1 13.4929 13.3323 17.5189
1 13.5183 14.1257 16.7361
1 12.716 13.3608 16.7346
1 14.2866 14.126 17.5189
1 15.0803 13.3323 17.5189
1 15.0973 14.1218 16.7242
1 14.2785 13.3404 16.7366
1 15.874 14.126 17.5189
1 16.6677 13.3323 17.5189
1 16.6467 14.1237 16.7173
1 15.8627 13.3125 16.7169
1 17.4614 14.126 17.5189
1 18.2551 13.3323 17.5189
1 18.258 14.1333 16.7356
1 17.4668 13.3452 16.7493
1 19.0488 14.126 17.5189
1 19.8425 13.3323 17.5189
1 19.8364 14.1088 16.7126
1 19.0164 13.3297 16.7524
1 20.6362 14.126 17.5189
1 21.4299 13.3323 17.5189
1 21.3931 14.1193 16.724
1 20.6121 13.3229 16.715
1 22.2236 14.126 17.5189
1 23.0173 13.3323 17.5189
1 23.0291 14.134 16.7183
1 22.2525 13.3577 16.735
1 23.811 14.126 17.5189
1 24.6047 13.3323 17.5189
1 24.5863 14.1299 16.703
1 23.8076 13.3385 16.7087
1 25.3984 14.126 17.5189
1 26.1921 13.3323 17.5189
1 26.2 14.115 16.7295
1 25.4084 13.3287 16.7313
1 26.9858 14.126 17.5189
1 27.7795 13.3323 17.5189
1 27.7693 14.1295 16.7106
1 26.9832 13.315 16.6947
1 28.5732 14.126 17.5189
1 29.3669 13.3323 17.5189
1 29.2996 14.1205 16.6774
1 28.5536 13.3327 16.7044
1 0 12.5386 17.5189
1 0.793701 11.7449 17.5189
1 0.808443 12.5266 16.6987
1 0.0327713 11.7437 16.6699
1 1.5874 12.5386 17.5189
1 2.3811 11.7449 17.5189
1 2.38737 12.5382 16.7252
1 1.59048 11.7388 16.7372
1 3.1748 12.5386 17.5189
1 3.9685 11.7449 17.5189
1 3.96903 12.5523 16.7499
1 3.19325 11.7565 16.755
1 4.7622 12.5386 17.5189
1 5.5559 11.7449 17.5189
1 5.54746 12.5291 16.718
1 4.76342 11.7375 16.7094
1 6.3496 12.5386 17.5189
1 7.1433 11.7449 17.5189
1 7.12103 12.5441 16.7365
1 6.34126 11.736 16.7473
1 7.93701 12.5386 17.5189
1 8.73071 11.7449 17.5189
1 8.73906 12.5097 16.7251
1 7.91474 11.7463 16.7235
1 9.52441 12.5386 17.5189
1 10.3181 11.7449 17.5189
1 10.3076 12.5394 16.7395
1 9.52952 11.7437 16.728
1 11.1118 12.5386 17.5189
1 11.9055 11.7449 17.5189
1 11.8944 12.5456 16.729
1 11.1314 11.7273 16.7252
1 12.6992 12.5386 17.5189
1 13.4929 11.7449 17.5189
1 13.4755 12.5327 16.7224
1 12.6666 11.7624 16.7364
1 14.2866 12.5386 17.5189
1 15.0803 11.7449 17.5189
1 15.0993 12.5385 16.749
1 14.2592 11.7419 16.7528
1 15.874 12.5386 17.5189
1 16.6677 11.7449 17.5189
1 16.663 12.5452 16.7252
1 15.8768 11.7601 16.7478
1 17.4614 12.5386 17.5189
1 18.2551 11.7449 17.5189
1 18.2666 12.5279 16.7373
1 17.4745 11.7583 16.7415
1 19.0488 12.5386 17.5189
1 19.8425 11.7449 17.5189
1 19.8403 12.5429 16.7133
1 19.0469 11.7608 16.7268
1 20.6362 12.5386 17.5189
1 21.4299 11.7449 17.5189
1 21.4346 12.5512 16.734
1 20.6359 11.7516 16.7203
1 22.2236 12.5386 17.5189
1 23.0173 11.7449 17.5189
1 23.0474 12.5297 16.7545
1 22.2328 11.7558 16.7339
1 23.811 12.5386 17.5189
1 24.6047 11.7449 17.5189
1 24.616 12.5295 16.711
1 23.8181 11.7569 16.7345
1 25.3984 12.5386 17.5189
1 26.1921 11.7449 17.5189
1 26.1776 12.5238 16.729
1 25.4047 11.7493 16.7284
1 26.9858 12.5386 17.5189
1 27.7795 11.7449 17.5189
1 27.7781 12.5184 16.7268
1 26.9658 11.765 16.722
1 28.5732 12.5386 17.5189
1 29.3669 11.7449 17.5189
1 29.296 12.5721 16.6898
1 28.5528 11.7287 16.7237
1 0 10.9512 17.5189
1 0.793701 10.1575 17.5189
1 0.817398 10.9533 16.7419
1 0.0729905 10.1739 16.6986
1 1.5874 10.9512 17.5189
1 2.3811 10.1575 17.5189
1 2.39634 10.9617 16.7226
1 1.57329 10.1684 16.7272
1 3.1748 10.9512 17.5189
1 3.9685 10.1575 17.5189
1 3.96653 10.9547 16.7535
1 3.1938 10.144 16.7168
1 4.7622 10.9512 17.5189
1 5.5559 10.1575 17.5189
1 5.55972 10.9441 16.7479
1 4.78157 10.1727 16.7111
1 6.3496 10.9512 17.5189
1 7.1433 10.1575 17.5189
1 7.12571 10.9591 16.7353
1 6.35466 10.1497 16.719
1 7.93701 10.9512 17.5189
1 8.73071 10.1575 17.5189
1 8.72386 10.9509 16.7436
1 7.93513 10.1657 16.7166
1 9.52441 10.9512 17.5189
1 10.3181 10.1575 17.5189
1 10.331 10.9544 16.7193
1 9.50979 10.1653 16.7303
1 11.1118 10.9512 17.5189
1 11.9055 10.1575 17.5189
1 11.9155 10.9475 16.7016
1 11.0981 10.1519 16.7402
1 12.6992 10.9512 17.5189
1 13.4929 10.1575 17.5189
1 13.4605 10.9501 16.7132
1 12.695 10.1468 16.7259
1 14.2866 10.9512 17.5189
1 15.0803 10.1575 17.5189
1 15.0671 10.9452 16.7256
1 14.2839 10.1616 16.7063
1 15.874 10.9512 17.5189
1 16.6677 10.1575 17.5189
1 16.665 10.9596 16.7222
1 15.8914 10.1545 16.6995
1 17.4614 10.9512 17.5189
1 18.2551 10.1575 17.5189
1 18.2438 10.9754 16.7093
1 17.4688 10.1642 16.7024
1 19.0488 10.9512 17.5189
1 19.8425 10.1575 17.5189
1 19.8216 10.9637 16.7149
1 19.0443 10.1481 16.712
1 20.6362 10.9512 17.5189
1 21.4299 10.1575 17.5189
1 21.428 10.9625 16.7356
1 20.61 10.1442 16.729
1 22.2236 10.9512 17.5189
1 23.0173 10.1575 17.5189
1 23.0233 10.9693 16.7335
1 22.2408 10.1758 16.7522
1 23.811 10.9512 17.5189
1 24.6047 10.1575 17.5189
1 24.6204 10.9459 16.7447
1 23.8286 10.1863 16.7156
1 25.3984 10.9512 17.5189
1 26.1921 10.1575 17.5189
1 26.1945 10.9447 16.7302
1 25.3818 10.1496 16.7444
1 26.9858 10.9512 17.5189
1 27.7795 10.1575 17.5189
1 27.7483 10.929 16.7262
1 26.9608 10.1486 16.729
1 28.5732 10.9512 17.5189
1 29.3669 10.1575 17.5189
1 29.2938 10.9452 16.6778
1 28.5303 10.1601 16.7173
1 0 9.36379 17.5189
1 0.793701 8.57009 17.5189
1 0.820389 9.353 16.7048
1 0.060131 8.57446 16.6841
1 1.5874 9.36379 17.5189
1 2.3811 8.57009 17.5189
1 2.40196 9.36564 16.7229
1 1.60315 8.56809 16.7383
1 3.1748 9.36379 17.5189
1 3.9685 8.57009 17.5189
1 3.94893 9.35515 16.7299
1 3.15621 8.58415 16.7386
1 4.7622 9.36379 17.5189
1 5.5559 8.57009 17.5189
1 5.54989 9.35774 16.7146
1 4.73876 8.60754 16.7001
1 6.3496 9.36379 17.5189
1 7.1433 8.57009 17.5189
1 7.16632 9.36333 16.718
1 6.35396 8.57302 16.7492
1 7.93701 9.36379 17.5189
1 8.73071 8.57009 17.5189
1 8.73336 9.37234 16.714
1 7.94064 8.54082 16.7118
1 9.52441 9.36379 17.5189
1 10.3181 8.57009 17.5189
1 10.329 9.35165 16.7217
1 9.51865 8.5645 16.7366
1 11.1118 9.36379 17.5189
1 11.9055 8.57009 17.5189
1 11.8975 9.34871 16.7235
1 11.1236 8.58138 16.7406
1 12.6992 9.36379 17.5189
1 13.4929 8.57009 17.5189
1 13.4825 9.34123 16.7057
1 12.6826 8.57551 16.7338
1 14.2866 9.36379 17.5189
1 15.0803 8.57009 17.5189
1 15.0964 9.3761 16.6927
1 14.2717 8.56454 16.7367
1 15.874 9.36379 17.5189
1 16.6677 8.57009 17.5189
1 16.6487 9.38751 16.7276
1 15.8577 8.58402 16.7393
1 17.4614 9.36379 17.5189
1 18.2551 8.57009 17.5189
1 18.2809 9.35962 16.7458
1 17.4615 8.58003 16.7121
1 19.0488 9.36379 17.5189
1 19.8425 8.57009 17.5189
1 19.8315 9.35752 16.744
1 19.0438 8.58588 16.7381
1 20.6362 9.36379 17.5189
1 21.4299 8.57009 17.5189
1 21.4614 9.37486 16.7481
1 20.6205 8.58564 16.7175
1 22.2236 9.36379 17.5189
1 23.0173 8.57009 17.5189
1 23.0077 9.39571 16.7226
1 22.2354 8.56717 16.7251
1 23.811 9.36379 17.5189
1 24.6047 8.57009 17.5189
1 24.6223 9.36403 16.7263
1 23.8124 8.57563 16.7473
1 25.3984 9.36379 17.5189
1 26.1921 8.57009 17.5189
1 26.1738 9.34827 16.7184
1 25.3894 8.55062 16.7587
1 26.9858 9.36379 17.5189
1 27.7795 8.57009 17.5189
1 27.7593 9.34364 16.7188
1 26.9872 8.58225 16.7264
1 28.5732 9.36379 17.5189
1 29.3669 8.57009 17.5189
1 29.2905 9.37521 16.7075
1 28.5436 8.54358 16.7284
1 0 7.77639 17.5189
1 0.793701 6.98268 17.5189
1 0.824032 7.76648 16.6969
1 0.0478341 6.98249 16.696
1 1.5874 7.77639 17.5189
1 2.3811 6.98268 17.5189
1 2.38181 7.76502 16.7121
1 1.59284 6.98132 16.7376
1 3.1748 7.77639 17.5189
1 3.9685 6.98268 17.5189
1 3.96394 7.79719 16.6983
1 3.19237 6.96908 16.7271
1 4.7622 7.77639 17.5189
1 5.5559 6.98268 17.5189
1 5.55378 7.80148 16.7257
1 4.76752 6.99306 16.7023
1 6.3496 7.77639 17.5189
1 7.1433 6.98268 17.5189
1 7.15162 7.77749 16.7188
1 6.33843 6.98398 16.701
1 7.93701 7.77639 17.5189
1 8.73071 6.98268 17.5189
1 8.74422 7.7667 16.7117
1 7.94587 7.00517 16.7036
1 9.52441 7.77639 17.5189
1 10.3181 6.98268 17.5189
1 10.3064 7.77121 16.7023
1 9.51863 6.97514 16.7311
1 11.1118 7.77639 17.5189
1 11.9055 6.98268 17.5189
1 11.9167 7.76775 16.7229
1 11.1113 6.98414 16.7339
1 12.6992 7.77639 17.5189
1 13.4929 6.98268 17.5189
1 13.4955 7.77233 16.7213
1 12.6851 6.98361 16.7377
1 14.2866 7.77639 17.5189
1 15.0803 6.98268 17.5189
1 15.0835 7.76923 16.7334
1 14.3046 6.98376 16.7207
1 15.874 7.77639 17.5189
1 16.6677 6.98268 17.5189
1 16.669 7.79795 16.7112
1 15.8685 6.97453 16.7346
1 17.4614 7.77639 17.5189
1 18.2551 6.98268 17.5189
1 18.2661 7.80266 16.7247
1 17.4738 6.98301 16.7512
1 19.0488 7.77639 17.5189
1 19.8425 6.98268 17.5189
1 19.8399 7.77797 16.7175
1 19.0498 6.99494 16.7122
1 20.6362 7.77639 17.5189
1 21.4299 6.98268 17.5189
1 21.4406 7.76289 16.7086
1 20.6372 6.99733 16.718
1 22.2236 7.77639 17.5189
1 23.0173 6.98268 17.5189
1 23.0044 7.78846 16.7407
1 22.2336 6.9966 16.7264
1 23.811 7.77639 17.5189
1 24.6047 6.98268 17.5189
1 24.5927 7.77853 16.7154
1 23.7771 6.98872 16.7218
1 25.3984 7.77639 17.5189
1 26.1921 6.98268 17.5189
1 26.1953 7.76256 16.7188
1 25.3987 6.99659 16.7395
1 26.9858 7.77639 17.5189
1 27.7795 6.98268 17.5189
1 27.7616 7.78056 16.7306
1 26.9805 6.99013 16.7246
1 28.5732 7.77639 17.5189
1 29.3669 6.98268 17.5189
1 29.2848 7.75061 16.6967
1 28.5509 6.99248 16.7079
1 0 6.18898 17.5189
1 0.793701 5.39528 17.5189
1 0.819733 6.18921 16.7187
1 0.0503702 5.4078 16.6819
1 1.5874 6.18898 17.5189
1 2.3811 5.39528 17.5189
1 2.40001 6.18342 16.7248
1 1.59144 5.3839 16.7016
1 3.1748 6.18898 17.5189
1 3.9685 5.39528 17.5189
1 3.9744 6.17523 16.7109
1 3.19329 5.38992 16.7319
1 4.7622 6.18898 17.5189
1 5.5559 5.39528 17.5189
1 5.57526 6.1787 16.7402
1 4.74836 5.39662 16.7298
1 6.3496 6.18898 17.5189
1 7.1433 5.39528 17.5189
1 7.16948 6.17707 16.7266
1 6.37118 5.37545 16.719
1 7.93701 6.18898 17.5189
1 8.73071 5.39528 17.5189
1 8.72439 6.19853 16.7144
1 7.94142 5.40234 16.7457
1 9.52441 6.18898 17.5189
1 10.3181 5.39528 17.5189