9376
Atoms. Timestep: 120000
1 0.05 3.55271e-15 10.7385
1 0.843701 29.2063 10.7385
1 0.878451 29.908 9.92931
1 0.106364 29.1675 9.90459
1 1.6374 3.55271e-15 10.7385
1 2.4311 29.2063 10.7385
1 2.43998 29.9149 9.91101
1 1.6527 29.1786 9.91877
1 3.2248 3.55271e-15 10.7385
1 4.0185 29.2063 10.7385
1 4.01337 29.9386 9.93179
1 3.23846 29.1961 9.93712
1 4.8122 3.55271e-15 10.7385
1 5.6059 29.2063 10.7385
1 5.58805 29.9281 9.90771
1 4.82836 29.1945 9.96824
1 6.3996 3.55271e-15 10.7385
1 7.1933 29.2063 10.7385
1 7.18119 29.9291 9.93371
1 6.38759 29.1861 9.93723
1 7.98701 3.55271e-15 10.7385
1 8.78071 29.2063 10.7385
1 8.77473 29.9535 9.92351
1 7.97913 29.1897 9.94233
1 9.57441 3.55271e-15 10.7385
1 10.3681 29.2063 10.7385
1 10.3683 29.9149 9.93583
1 9.56075 29.1862 9.95552
1 11.1618 3.55271e-15 10.7385
1 11.9555 29.2063 10.7385
1 11.9568 29.9527 9.91625
1 11.1859 29.1672 9.93167
1 12.7492 3.55271e-15 10.7385
1 13.5429 29.2063 10.7385
1 13.5477 29.9193 9.90344
1 12.7554 29.1864 9.95279
1 14.3366 3.55271e-15 10.7385
1 15.1303 29.2063 10.7385
1 15.1233 29.9352 9.91295
1 14.3301 29.1806 9.91439
1 15.924 3.55271e-15 10.7385
1 16.7177 29.2063 10.7385
1 16.738 29.9326 9.9148
1 15.9194 29.1945 9.92339
1 17.5114 3.55271e-15 10.7385
1 18.3051 29.2063 10.7385
1 18.296 29.9218 9.91193
1 17.5119 29.1769 9.92861
1 19.0988 3.55271e-15 10.7385
1 19.8925 29.2063 10.7385
1 19.8767 29.9356 9.90063
1 19.088 29.171 9.92322
1 20.6862 3.55271e-15 10.7385
1 21.4799 29.2063 10.7385
1 21.4853 29.9087 9.92387
1 20.6629 29.1814 9.9276
1 22.2736 3.55271e-15 10.7385
1 23.0673 29.2063 10.7385
1 23.0807 29.9463 9.90316
1 22.2982 29.1824 9.94393
1 23.861 3.55271e-15 10.7385
1 24.6547 29.2063 10.7385
1 24.633 29.9178 9.91743
1 23.8662 29.186 9.93434
1 25.4484 3.55271e-15 10.7385
1 26.2421 29.2063 10.7385
1 26.241 29.9405 9.92229
1 25.4629 29.1376 9.94898
1 27.0358 3.55271e-15 10.7385
1 27.8295 29.2063 10.7385
1 27.7958 29.9415 9.89774
1 27.0243 29.1775 9.93911
1 28.6232 3.55271e-15 10.7385
1 29.4169 29.2063 10.7385
1 29.3321 29.9207 9.88951
1 28.5705 29.1847 9.9477
1 0.05 28.4126 10.7385
1 0.843701 27.6189 10.7385
1 0.875812 28.3833 9.92141
1 0.121387 27.5933 9.90341
1 1.6374 28.4126 10.7385
1 2.4311 27.6189 10.7385
1 2.47268 28.3926 9.93713
1 1.66243 27.585 9.90974
1 3.2248 28.4126 10.7385
1 4.0185 27.6189 10.7385
1 4.03066 28.3817 9.9477
1 3.24094 27.6156 9.94428
1 4.8122 28.4126 10.7385
1 5.6059 27.6189 10.7385
1 5.61637 28.3742 9.92114
1 4.8052 27.5992 9.92675
1 6.3996 28.4126 10.7385
1 7.1933 27.6189 10.7385
1 7.1778 28.3925 9.94177
1 6.38118 27.5759 9.92476
1 7.98701 28.4126 10.7385
1 8.78071 27.6189 10.7385
1 8.79652 28.4048 9.95469
1 7.97323 27.6274 9.93332
1 9.57441 28.4126 10.7385
1 10.3681 27.6189 10.7385
1 10.3639 28.4043 9.95886
1 9.57498 27.6193 9.94254
1 11.1618 28.4126 10.7385
1 11.9555 27.6189 10.7385
1 11.9603 28.3739 9.95015
1 11.1577 27.5989 9.95728
1 12.7492 28.4126 10.7385
1 13.5429 27.6189 10.7385
1 13.5416 28.3966 9.93543
1 12.7826 27.5935 9.96081
1 14.3366 28.4126 10.7385
1 15.1303 27.6189 10.7385
1 15.1532 28.4047 9.93381
1 14.355 27.5766 9.93692
1 15.924 28.4126 10.7385
1 16.7177 27.6189 10.7385
1 16.7054 28.3846 9.94619
1 15.9438 27.6119 9.91583
1 17.5114 28.4126 10.7385
1 18.3051 27.6189 10.7385
1 18.2832 28.3929 9.94368
1 17.5117 27.5893 9.96611
1 19.0988 28.4126 10.7385
1 19.8925 27.6189 10.7385
1 19.8948 28.3937 9.92991
1 19.0977 27.5909 9.9426
1 20.6862 28.4126 10.7385
1 21.4799 27.6189 10.7385
1 21.5093 28.3984 9.93949
1 20.6809 27.6027 9.93514
1 22.2736 28.4126 10.7385
1 23.0673 27.6189 10.7385
1 23.0642 28.3995 9.95353
1 22.2642 27.6031 9.93877
1 23.861 28.4126 10.7385
1 24.6547 27.6189 10.7385
1 24.6373 28.3845 9.94906
1 23.8387 27.6088 9.9468
1 25.4484 28.4126 10.7385
1 26.2421 27.6189 10.7385
1 26.2289 28.4109 9.94534
1 25.4611 27.6177 9.95112
1 27.0358 28.4126 10.7385
1 27.8295 27.6189 10.7385
1 27.7956 28.3683 9.9521
1 27.0025 27.6135 9.90898
1 28.6232 28.4126 10.7385
1 29.4169 27.6189 10.7385
1 29.3387 28.3982 9.90411
1 28.617 27.6357 9.92019
1 0.05 26.8252 10.7385
1 0.843701 26.0315 10.7385
1 0.875911 26.8186 9.91796
1 0.115314 26.0047 9.89657
1 1.6374 26.8252 10.7385
1 2.4311 26.0315 10.7385
1 2.43494 26.8286 9.93014
1 1.63824 26.0591 9.93355
1 3.2248 26.8252 10.7385
1 4.0185 26.0315 10.7385
1 4.02987 26.8201 9.96832
1 3.24526 26.0293 9.9375
1 4.8122 26.8252 10.7385
1 5.6059 26.0315 10.7385
1 5.61772 26.8216 9.9551
1 4.81803 26.0268 9.92488
1 6.3996 26.8252 10.7385
1 7.1933 26.0315 10.7385
1 7.21011 26.8053 9.95293
1 6.39386 26.0319 9.95402
1 7.98701 26.8252 10.7385
1 8.78071 26.0315 10.7385
1 8.77485 26.8384 9.94994
1 8.01075 26.0267 9.95208
1 9.57441 26.8252 10.7385
1 10.3681 26.0315 10.7385
1 10.3657 26.8336 9.93614
1 9.58382 26.044 9.95077
1 11.1618 26.8252 10.7385
1 11.9555 26.0315 10.7385
1 11.9639 26.808 9.96559
1 11.1464 26.0403 9.95307
1 12.7492 26.8252 10.7385
1 13.5429 26.0315 10.7385
1 13.5535 26.7864 9.95782
1 12.7463 26.0304 9.93809
1 14.3366 26.8252 10.7385
1 15.1303 26.0315 10.7385
1 15.1426 26.8348 9.94771
1 14.3547 26.023 9.95132
1 15.924 26.8252 10.7385
1 16.7177 26.0315 10.7385
1 16.7185 26.8474 9.94745
1 15.9376 26.0209 9.95148
1 17.5114 26.8252 10.7385
1 18.3051 26.0315 10.7385
1 18.3151 26.8343 9.93883
1 17.514 26.02 9.9611
1 19.0988 26.8252 10.7385
1 19.8925 26.0315 10.7385
1 19.9021 26.8088 9.93538
1 19.1279 26.0256 9.96255
1 20.6862 26.8252 10.7385
1 21.4799 26.0315 10.7385
1 21.474 26.8238 9.94478
1 20.6627 26.0109 9.96871
1 22.2736 26.8252 10.7385
1 23.0673 26.0315 10.7385
1 23.0691 26.8288 9.96574
1 22.2808 26.0416 9.96741
1 23.861 26.8252 10.7385
1 24.6547 26.0315 10.7385
1 24.6585 26.8415 9.94878
1 23.8454 26.0508 9.97852
1 25.4484 26.8252 10.7385
1 26.2421 26.0315 10.7385
1 26.2347 26.828 9.96143
1 25.447 26.0357 9.94552
1 27.0358 26.8252 10.7385
1 27.8295 26.0315 10.7385
1 27.7985 26.8219 9.96075
1 27.0426 26.0183 9.92674
1 28.6232 26.8252 10.7385
1 29.4169 26.0315 10.7385
1 29.3205 26.8145 9.8952
1 28.5526 26.0263 9.94926
1 0.05 25.2378 10.7385
1 0.843701 24.4441 10.7385
1 0.867933 25.1975 9.94795
1 0.0959822 24.4507 9.89097
1 1.6374 25.2378 10.7385
1 2.4311 24.4441 10.7385
1 2.40763 25.2529 9.95546
1 1.65127 24.4199 9.95235
1 3.2248 25.2378 10.7385
1 4.0185 24.4441 10.7385
1 4.01324 25.2213 9.9542
1 3.23545 24.4524 9.98351
1 4.8122 25.2378 10.7385
1 5.6059 24.4441 10.7385
1 5.61743 25.2263 9.92521
1 4.82409 24.4424 9.96294
1 6.3996 25.2378 10.7385
1 7.1933 24.4441 10.7385
1 7.20197 25.2452 9.93881
1 6.41762 24.4515 9.95318
1 7.98701 25.2378 10.7385
1 8.78071 24.4441 10.7385
1 8.78118 25.2531 9.9749
1 7.97949 24.453 9.95693
1 9.57441 25.2378 10.7385
1 10.3681 24.4441 10.7385
1 10.3655 25.2344 9.93757
1 9.58202 24.4472 9.9584
1 11.1618 25.2378 10.7385
1 11.9555 24.4441 10.7385
1 11.9304 25.2657 9.92837
1 11.1808 24.4327 9.95215
1 12.7492 25.2378 10.7385
1 13.5429 24.4441 10.7385
1 13.5493 25.2528 9.95595
1 12.7561 24.4587 9.94288
1 14.3366 25.2378 10.7385
1 15.1303 24.4441 10.7385
1 15.1361 25.2127 9.95991
1 14.3581 24.4463 9.93764
1 15.924 25.2378 10.7385
1 16.7177 24.4441 10.7385
1 16.7069 25.227 9.92856
1 15.9104 24.4504 9.94297
1 17.5114 25.2378 10.7385
1 18.3051 24.4441 10.7385
1 18.3037 25.2437 9.94285
1 17.5056 24.4355 9.95106
1 19.0988 25.2378 10.7385
1 19.8925 24.4441 10.7385
1 19.8931 25.2317 9.95592
1 19.0937 24.4572 9.93248
1 20.6862 25.2378 10.7385
1 21.4799 24.4441 10.7385
1 21.5084 25.2522 9.96079
1 20.6881 24.4363 9.93524
1 22.2736 25.2378 10.7385
1 23.0673 24.4441 10.7385
1 23.0878 25.2309 9.96067
1 22.274 24.4472 9.94697
1 23.861 25.2378 10.7385
1 24.6547 24.4441 10.7385
1 24.6665 25.2488 9.94908
1 23.879 24.4633 9.97102
1 25.4484 25.2378 10.7385
1 26.2421 24.4441 10.7385
1 26.2223 25.2574 9.95144
1 25.457 24.4435 9.94496
1 27.0358 25.2378 10.7385
1 27.8295 24.4441 10.7385
1 27.8039 25.2325 9.93592
1 27.0325 24.4411 9.95814
1 28.6232 25.2378 10.7385
1 29.4169 24.4441 10.7385
1 29.3478 25.2478 9.89198
1 28.612 24.4483 9.94455
1 0.05 23.6504 10.7385
1 0.843701 22.8567 10.7385
1 0.874501 23.643 9.94786
1 0.102806 22.855 9.92723
1 1.6374 23.6504 10.7385
1 2.4311 22.8567 10.7385
1 2.43847 23.6437 9.97333
1 1.63551 22.8504 9.95539
1 3.2248 23.6504 10.7385
1 4.0185 22.8567 10.7385
1 4.02086 23.6358 9.92444
1 3.22975 22.8565 9.96065
1 4.8122 23.6504 10.7385
1 5.6059 22.8567 10.7385
1 5.61782 23.6696 9.95349
1 4.83771 22.8876 9.93618
1 6.3996 23.6504 10.7385
1 7.1933 22.8567 10.7385
1 7.18598 23.6473 9.91616
1 6.40138 22.8543 9.92171
1 7.98701 23.6504 10.7385
1 8.78071 22.8567 10.7385
1 8.79204 23.6516 9.9557
1 7.9804 22.8726 9.95595
1 9.57441 23.6504 10.7385
1 10.3681 22.8567 10.7385
1 10.4066 23.6344 9.94665
1 9.57018 22.8425 9.95898
1 11.1618 23.6504 10.7385
1 11.9555 22.8567 10.7385
1 11.9574 23.6403 9.96578
1 11.1696 22.8616 9.96559
1 12.7492 23.6504 10.7385
1 13.5429 22.8567 10.7385
1 13.5635 23.6428 9.94035
1 12.77 22.8223 9.94461
1 14.3366 23.6504 10.7385
1 15.1303 22.8567 10.7385
1 15.1566 23.6216 9.96608
1 14.303 22.8421 9.96592
1 15.924 23.6504 10.7385
1 16.7177 22.8567 10.7385
1 16.7172 23.6427 9.94112
1 15.935 22.8583 9.94308
1 17.5114 23.6504 10.7385
1 18.3051 22.8567 10.7385
1 18.3324 23.6726 9.92836
1 17.5295 22.8653 9.95734
1 19.0988 23.6504 10.7385
1 19.8925 22.8567 10.7385
1 19.8976 23.6467 9.96834
1 19.1164 22.8406 9.9464
1 20.6862 23.6504 10.7385
1 21.4799 22.8567 10.7385
1 21.4664 23.641 9.95253
1 20.7002 22.8476 9.96187
1 22.2736 23.6504 10.7385
1 23.0673 22.8567 10.7385
1 23.0681 23.6382 9.95482
1 22.2414 22.8531 9.9112
1 23.861 23.6504 10.7385
1 24.6547 22.8567 10.7385
1 24.6589 23.6529 9.94161
1 23.8479 22.8247 9.97221
1 25.4484 23.6504 10.7385
1 26.2421 22.8567 10.7385
1 26.2308 23.6474 9.99316
1 25.4547 22.8427 9.94708
1 27.0358 23.6504 10.7385
1 27.8295 22.8567 10.7385
1 27.8149 23.648 9.94953
1 26.9997 22.8744 9.93923
1 28.6232 23.6504 10.7385
1 29.4169 22.8567 10.7385
1 29.3209 23.6394 9.90441
1 28.5768 22.8209 9.95551
1 0.05 22.063 10.7385
1 0.843701 21.2693 10.7385
1 0.865714 22.0496 9.93115
1 0.139803 21.2625 9.89547
1 1.6374 22.063 10.7385
1 2.4311 21.2693 10.7385
1 2.41254 22.0387 9.93853
1 1.67107 21.2884 9.93757
1 3.2248 22.063 10.7385
1 4.0185 21.2693 10.7385
1 4.04383 22.0642 9.93302
1 3.23021 21.2597 9.94434
1 4.8122 22.063 10.7385
1 5.6059 21.2693 10.7385
1 5.60079 22.0848 9.96713
1 4.80919 21.2372 9.95048
1 6.3996 22.063 10.7385
1 7.1933 21.2693 10.7385
1 7.2051 22.0881 9.96055
1 6.38306 21.2678 9.95967
1 7.98701 22.063 10.7385
1 8.78071 21.2693 10.7385
1 8.75945 22.0834 9.93248
1 8.00286 21.2915 9.93704
1 9.57441 22.063 10.7385
1 10.3681 21.2693 10.7385
1 10.3694 22.0894 9.94558
1 9.5801 21.2686 9.96646
1 11.1618 22.063 10.7385
1 11.9555 21.2693 10.7385
1 11.9515 22.0402 9.94397
1 11.1537 21.2677 9.94125
1 12.7492 22.063 10.7385
1 13.5429 21.2693 10.7385
1 13.5366 22.0392 9.96585
1 12.7547 21.2592 9.94369
1 14.3366 22.063 10.7385
1 15.1303 21.2693 10.7385
1 15.1257 22.069 9.96948
1 14.3751 21.2882 9.92937
1 15.924 22.063 10.7385
1 16.7177 21.2693 10.7385
1 16.709 22.0831 9.96533
1 15.9378 21.2671 9.92985
1 17.5114 22.063 10.7385
1 18.3051 21.2693 10.7385
1 18.3233 22.0502 9.94262
1 17.516 21.2694 9.9546
1 19.0988 22.063 10.7385
1 19.8925 21.2693 10.7385
1 19.8987 22.0935 9.95479
1 19.1144 21.2888 9.95509
1 20.6862 22.063 10.7385
1 21.4799 21.2693 10.7385
1 21.5012 22.0771 9.94847
1 20.6977 21.2578 9.93985
1 22.2736 22.063 10.7385
1 23.0673 21.2693 10.7385
1 23.0409 22.0696 9.94322
1 22.2518 21.2616 9.94346
1 23.861 22.063 10.7385
1 24.6547 21.2693 10.7385
1 24.6729 22.0545 9.93599
1 23.8784 21.2676 9.94223
1 25.4484 22.063 10.7385
1 26.2421 21.2693 10.7385
1 26.2491 22.0362 9.94931
1 25.4557 21.2553 9.91139
1 27.0358 22.063 10.7385
1 27.8295 21.2693 10.7385
1 27.825 22.0763 9.92172
1 27.0109 21.2763 9.95129
1 28.6232 22.063 10.7385
1 29.4169 21.2693 10.7385
1 29.3365 22.0676 9.927
1 28.6001 21.2776 9.95129
1 0.05 20.4756 10.7385
1 0.843701 19.6819 10.7385
1 0.896189 20.4798 9.92846
1 0.125253 19.6695 9.92149
1 1.6374 20.4756 10.7385
1 2.4311 19.6819 10.7385
1 2.43709 20.4662 9.94552
1 1.64508 19.6858 9.9525
1 3.2248 20.4756 10.7385
1 4.0185 19.6819 10.7385
1 4.01391 20.4587 9.95681
1 3.22349 19.6767 9.96099
1 4.8122 20.4756 10.7385
1 5.6059 19.6819 10.7385
1 5.61049 20.478 9.94901
1 4.82121 19.6768 9.95037
1 6.3996 20.4756 10.7385
1 7.1933 19.6819 10.7385
1 7.18432 20.4756 9.95988
1 6.41314 19.6667 9.96521
1 7.98701 20.4756 10.7385
1 8.78071 19.6819 10.7385
1 8.762 20.4823 9.95905
1 7.97613 19.6643 9.93987
1 9.57441 20.4756 10.7385
1 10.3681 19.6819 10.7385
1 10.3723 20.4695 9.93721
1 9.52519 19.6987 9.91779
1 11.1618 20.4756 10.7385
1 11.9555 19.6819 10.7385
1 11.9504 20.4693 9.94651
1 11.1499 19.6671 9.93005
1 12.7492 20.4756 10.7385
1 13.5429 19.6819 10.7385
1 13.5471 20.4879 9.94755
1 12.7728 19.6853 9.94523
1 14.3366 20.4756 10.7385
1 15.1303 19.6819 10.7385
1 15.1309 20.4836 9.95664
1 14.3406 19.7047 9.9384
1 15.924 20.4756 10.7385
1 16.7177 19.6819 10.7385
1 16.7331 20.4544 9.94024
1 15.905 19.6704 9.95607
1 17.5114 20.4756 10.7385
1 18.3051 19.6819 10.7385
1 18.3159 20.4754 9.95235
1 17.5217 19.6874 9.95052
1 19.0988 20.4756 10.7385
1 19.8925 19.6819 10.7385
1 19.8867 20.4888 9.94807
1 19.1009 19.6647 9.95492
1 20.6862 20.4756 10.7385
1 21.4799 19.6819 10.7385
1 21.4778 20.4592 9.96859
1 20.6799 19.6737 9.93898
1 22.2736 20.4756 10.7385
1 23.0673 19.6819 10.7385
1 23.0765 20.4757 9.91436
1 22.2886 19.6843 9.93875
1 23.861 20.4756 10.7385
1 24.6547 19.6819 10.7385
1 24.67 20.4737 9.94213
1 23.8514 19.69 9.93405
1 25.4484 20.4756 10.7385
1 26.2421 19.6819 10.7385
1 26.2322 20.4636 9.92207
1 25.4582 19.658 9.95455
1 27.0358 20.4756 10.7385
1 27.8295 19.6819 10.7385
1 27.8102 20.4886 9.94189
1 27.0171 19.6845 9.96915
1 28.6232 20.4756 10.7385
1 29.4169 19.6819 10.7385
1 29.3455 20.4755 9.90244
1 28.5922 19.6959 9.94086
1 0.05 18.8882 10.7385
1 0.843701 18.0945 10.7385
1 0.878289 18.8872 9.94458
1 0.11737 18.0808 9.91698
1 1.6374 18.8882 10.7385
1 2.4311 18.0945 10.7385
1 2.4504 18.88 9.93926
1 1.63435 18.08 9.94856
1 3.2248 18.8882 10.7385
1 4.0185 18.0945 10.7385
1 4.01655 18.8983 9.93483
1 3.21707 18.1029 9.96062
1 4.8122 18.8882 10.7385
1 5.6059 18.0945 10.7385
1 5.60522 18.8677 9.94421
1 4.80079 18.0739 9.95007
1 6.3996 18.8882 10.7385
1 7.1933 18.0945 10.7385
1 7.16944 18.8759 9.95604
1 6.41218 18.0824 9.93259
1 7.98701 18.8882 10.7385
1 8.78071 18.0945 10.7385
1 8.77621 18.8792 9.93164
1 7.97736 18.078 9.93863
1 9.57441 18.8882 10.7385
1 10.3681 18.0945 10.7385
1 10.3608 18.9128 9.94014
1 9.55499 18.0984 9.94147
1 11.1618 18.8882 10.7385
1 11.9555 18.0945 10.7385
1 11.9585 18.8802 9.93771
1 11.1373 18.0913 9.91939
1 12.7492 18.8882 10.7385
1 13.5429 18.0945 10.7385
1 13.5506 18.9117 9.93145
1 12.7435 18.0835 9.97272
1 14.3366 18.8882 10.7385
1 15.1303 18.0945 10.7385
1 15.1155 18.851 9.92606
1 14.3445 18.0991 9.95769
1 15.924 18.8882 10.7385
1 16.7177 18.0945 10.7385
1 16.7189 18.9016 9.94081
1 15.9535 18.0663 9.9346
1 17.5114 18.8882 10.7385
1 18.3051 18.0945 10.7385
1 18.3092 18.8584 9.92549
1 17.5054 18.1131 9.94926
1 19.0988 18.8882 10.7385
1 19.8925 18.0945 10.7385
1 19.9093 18.8515 9.95382
1 19.0907 18.0889 9.93556
1 20.6862 18.8882 10.7385
1 21.4799 18.0945 10.7385
1 21.4765 18.8834 9.93065
1 20.6979 18.0824 9.94594
1 22.2736 18.8882 10.7385
1 23.0673 18.0945 10.7385
1 23.0788 18.8921 9.95585
1 22.2589 18.1016 9.96168
1 23.861 18.8882 10.7385
1 24.6547 18.0945 10.7385
1 24.6465 18.8584 9.95907
1 23.8419 18.0778 9.93764
1 25.4484 18.8882 10.7385
1 26.2421 18.0945 10.7385
1 26.2313 18.878 9.97051
1 25.437 18.0627 9.94135
1 27.0358 18.8882 10.7385
1 27.8295 18.0945 10.7385
1 27.8142 18.8948 9.92776
1 27.0179 18.1083 9.95309
1 28.6232 18.8882 10.7385
1 29.4169 18.0945 10.7385
1 29.3785 18.8962 9.88551
1 28.6165 18.1078 9.93344
1 0.05 17.3008 10.7385
1 0.843701 16.5071 10.7385
1 0.901811 17.2974 9.91912
1 0.124129 16.4977 9.90296
1 1.6374 17.3008 10.7385
1 2.4311 16.5071 10.7385
1 2.43767 17.3032 9.91997
1 1.66988 16.4953 9.94139
1 3.2248 17.3008 10.7385
1 4.0185 16.5071 10.7385
1 4.01796 17.3016 9.93257
1 3.21271 16.5386 9.92664
1 4.8122 17.3008 10.7385
1 5.6059 16.5071 10.7385
1 5.59736 17.3001 9.92928
1 4.80604 16.4876 9.93715
1 6.3996 17.3008 10.7385
1 7.1933 16.5071 10.7385
1 7.1863 17.2968 9.92427
1 6.36701 16.4956 9.95719
1 7.98701 17.3008 10.7385
1 8.78071 16.5071 10.7385
1 8.76923 17.3081 9.91822
1 7.9686 16.5177 9.93792
1 9.57441 17.3008 10.7385
1 10.3681 16.5071 10.7385
1 10.3503 17.3063 9.93949
1 9.5594 16.5372 9.92232
1 11.1618 17.3008 10.7385
1 11.9555 16.5071 10.7385
1 11.9341 17.3375 9.93143
1 11.1375 16.5091 9.94653
1 12.7492 17.3008 10.7385
1 13.5429 16.5071 10.7385
1 13.5137 17.2944 9.95434
1 12.7241 16.5022 9.93974
1 14.3366 17.3008 10.7385
1 15.1303 16.5071 10.7385
1 15.1454 17.2987 9.93679
1 14.3134 16.5137 9.93239
1 15.924 17.3008 10.7385
1 16.7177 16.5071 10.7385
1 16.719 17.3001 9.93363
1 15.919 16.5056 9.96758
1 17.5114 17.3008 10.7385
1 18.3051 16.5071 10.7385
1 18.2968 17.3243 9.95332
1 17.5007 16.4902 9.95453
1 19.0988 17.3008 10.7385
1 19.8925 16.5071 10.7385
1 19.8905 17.318 9.94284
1 19.1123 16.5333 9.95463
1 20.6862 17.3008 10.7385
1 21.4799 16.5071 10.7385
1 21.4913 17.3 9.93931
1 20.6574 16.533 9.97209
1 22.2736 17.3008 10.7385
1 23.0673 16.5071 10.7385
1 23.0361 17.2919 9.96298
1 22.277 16.5119 9.94903
1 23.861 17.3008 10.7385
1 24.6547 16.5071 10.7385
1 24.638 17.2811 9.95663
1 23.8296 16.5448 9.93305
1 25.4484 17.3008 10.7385
1 26.2421 16.5071 10.7385
1 26.2522 17.2618 9.93093
1 25.4384 16.4739 9.94907
1 27.0358 17.3008 10.7385
1 27.8295 16.5071 10.7385
1 27.8308 17.2995 9.91575
1 27.0328 16.5309 9.92616
1 28.6232 17.3008 10.7385
1 29.4169 16.5071 10.7385
1 29.335 17.3041 9.94295
1 28.6054 16.5237 9.95039
1 0.05 15.7134 10.7385
1 0.843701 14.9197 10.7385
1 0.856433 15.7061 9.92849
1 0.136774 14.9087 9.92203
1 1.6374 15.7134 10.7385
1 2.4311 14.9197 10.7385
1 2.43396 15.7198 9.93242
1 1.66936 14.917 9.92093
1 3.2248 15.7134 10.7385
1 4.0185 14.9197 10.7385
1 4.00533 15.7206 9.96224
1 3.21582 14.9471 9.91936
1 4.8122 15.7134 10.7385
1 5.6059 14.9197 10.7385
1 5.6082 15.6874 9.93232
1 4.83516 14.9296 9.92498
1 6.3996 15.7134 10.7385
1 7.1933 14.9197 10.7385
1 7.19276 15.7313 9.9401
1 6.40465 14.9134 9.92562
1 7.98701 15.7134 10.7385
1 8.78071 14.9197 10.7385
1 8.77124 15.725 9.93366
1 8.02623 14.9411 9.95215
1 9.57441 15.7134 10.7385
1 10.3681 14.9197 10.7385
1 10.3445 15.7196 9.94223
1 9.56081 14.9202 9.93696
1 11.1618 15.7134 10.7385
1 11.9555 14.9197 10.7385
1 11.9742 15.6897 9.95311
1 11.1751 14.9495 9.94189
1 12.7492 15.7134 10.7385
1 13.5429 14.9197 10.7385
1 13.541 15.6769 9.94018
1 12.7336 14.9032 9.92818
1 14.3366 15.7134 10.7385
1 15.1303 14.9197 10.7385
1 15.1314 15.7154 9.92643
1 14.3078 14.924 9.95757
1 15.924 15.7134 10.7385
1 16.7177 14.9197 10.7385
1 16.7083 15.7103 9.94627
1 15.9216 14.9418 9.94529
1 17.5114 15.7134 10.7385
1 18.3051 14.9197 10.7385
1 18.2995 15.7241 9.94724
1 17.4975 14.9141 9.95349
1 19.0988 15.7134 10.7385
1 19.8925 14.9197 10.7385
1 19.877 15.7156 9.97058
1 19.08 14.9156 9.95289
1 20.6862 15.7134 10.7385
1 21.4799 14.9197 10.7385
1 21.4936 15.7261 9.92478
1 20.6742 14.9163 9.94459
1 22.2736 15.7134 10.7385
1 23.0673 14.9197 10.7385
1 23.0535 15.687 9.94444
1 22.2631 14.9186 9.92789
1 23.861 15.7134 10.7385
1 24.6547 14.9197 10.7385
1 24.6257 15.7313 9.94121
1 23.8446 14.929 9.94568
1 25.4484 15.7134 10.7385
1 26.2421 14.9197 10.7385
1 26.2229 15.7254 9.92786
1 25.4535 14.9341 9.95429
1 27.0358 15.7134 10.7385
1 27.8295 14.9197 10.7385
1 27.8212 15.7094 9.95713
1 27.0208 14.918 9.97399
1 28.6232 15.7134 10.7385
1 29.4169 14.9197 10.7385
1 29.3697 15.7131 9.91568
1 28.5736 14.9288 9.94709
1 0.05 14.126 10.7385
1 0.843701 13.3323 10.7385
1 0.903512 14.139 9.93384
1 0.133367 13.329 9.92481
1 1.6374 14.126 10.7385
1 2.4311 13.3323 10.7385
1 2.42874 14.1167 9.94715
1 1.6725 13.3434 9.94306
1 3.2248 14.126 10.7385
1 4.0185 13.3323 10.7385
1 4.01198 14.1181 9.94985
1 3.24359 13.3359 9.99627
1 4.8122 14.126 10.7385
1 5.6059 13.3323 10.7385
1 5.62433 14.1266 9.94936
1 4.84318 13.3485 9.92288
1 6.3996 14.126 10.7385
1 7.1933 13.3323 10.7385
1 7.20013 14.1335 9.96732
1 6.4069 13.3367 9.94064
1 7.98701 14.126 10.7385
1 8.78071 13.3323 10.7385
1 8.79632 14.1218 9.94256
1 7.97932 13.3279 9.96388
1 9.57441 14.126 10.7385
1 10.3681 13.3323 10.7385
1 10.3627 14.1532 9.95269
1 9.60664 13.3338 9.9255
1 11.1618 14.126 10.7385
1 11.9555 13.3323 10.7385
1 11.9408 14.1236 9.96179
1 11.1812 13.3378 9.95561
1 12.7492 14.126 10.7385
1 13.5429 13.3323 10.7385
1 13.5264 14.1343 9.95043
1 12.7425 13.3491 9.93802
1 14.3366 14.126 10.7385
1 15.1303 13.3323 10.7385
1 15.1365 14.157 9.95756
1 14.3158 13.3581 9.93576
1 15.924 14.126 10.7385
1 16.7177 13.3323 10.7385
1 16.7224 14.1072 9.94309
1 15.9429 13.353 9.96105
1 17.5114 14.126 10.7385
1 18.3051 13.3323 10.7385
1 18.2976 14.1242 9.97791
1 17.5264 13.3392 9.94094
1 19.0988 14.126 10.7385
1 19.8925 13.3323 10.7385
1 19.8733 14.1312 9.96302
1 19.0867 13.3087 9.94801
1 20.6862 14.126 10.7385
1 21.4799 13.3323 10.7385
1 21.4565 14.1345 9.9378
1 20.6706 13.3476 9.93328
1 22.2736 14.126 10.7385
1 23.0673 13.3323 10.7385
1 23.0986 14.1106 9.94252
1 22.2824 13.3554 9.9348
1 23.861 14.126 10.7385
1 24.6547 13.3323 10.7385
1 24.6585 14.1288 9.94254
1 23.8657 13.3164 9.93352
1 25.4484 14.126 10.7385
1 26.2421 13.3323 10.7385
1 26.2828 14.1305 9.9299
1 25.4744 13.3235 9.91602
1 27.0358 14.126 10.7385
1 27.8295 13.3323 10.7385
1 27.8095 14.124 9.96316
1 27.0712 13.3459 9.92688
1 28.6232 14.126 10.7385
1 29.4169 13.3323 10.7385
1 29.3837 14.1251 9.9316
1 28.6127 13.3418 9.93912
1 0.05 12.5386 10.7385
1 0.843701 11.7449 10.7385
1 0.868311 12.5279 9.94551
1 0.112286 11.721 9.91784
1 1.6374 12.5386 10.7385
1 2.4311 11.7449 10.7385
1 2.44709 12.5309 9.95985
1 1.6421 11.7335 9.9327
1 3.2248 12.5386 10.7385
1 4.0185 11.7449 10.7385
1 4.04402 12.5568 9.94913
1 3.24667 11.7593 9.95993
1 4.8122 12.5386 10.7385
1 5.6059 11.7449 10.7385
1 5.59073 12.531 9.94019
1 4.83184 11.7553 9.95743
1 6.3996 12.5386 10.7385
1 7.1933 11.7449 10.7385
1 7.17988 12.5382 9.97605
1 6.3934 11.7501 9.95321
1 7.98701 12.5386 10.7385
1 8.78071 11.7449 10.7385
1 8.78389 12.5402 9.93619
1 7.98632 11.7336 9.95514
1 9.57441 12.5386 10.7385
1 10.3681 11.7449 10.7385
1 10.3983 12.5702 9.9462
1 9.58459 11.76 9.93567
1 11.1618 12.5386 10.7385
1 11.9555 11.7449 10.7385
1 11.9656 12.5272 9.92842
1 11.1964 11.7617 9.95833
1 12.7492 12.5386 10.7385
1 13.5429 11.7449 10.7385
1 13.5474 12.5315 9.9365
1 12.7371 11.7613 9.94355
1 14.3366 12.5386 10.7385
1 15.1303 11.7449 10.7385
1 15.135 12.5599 9.95793
1 14.3453 11.7402 9.94253
1 15.924 12.5386 10.7385
1 16.7177 11.7449 10.7385
1 16.7126 12.5567 9.94361
1 15.9293 11.7565 9.91913
1 17.5114 12.5386 10.7385
1 18.3051 11.7449 10.7385
1 18.284 12.5481 9.9335
1 17.5108 11.7294 9.93911
1 19.0988 12.5386 10.7385
1 19.8925 11.7449 10.7385
1 19.8899 12.5413 9.95975
1 19.0849 11.7478 9.9253
1 20.6862 12.5386 10.7385
1 21.4799 11.7449 10.7385
1 21.499 12.5471 9.93088
1 20.6797 11.7369 9.96493
1 22.2736 12.5386 10.7385
1 23.0673 11.7449 10.7385
1 23.0652 12.5328 9.95333
1 22.2708 11.7486 9.96195
1 23.861 12.5386 10.7385
1 24.6547 11.7449 10.7385
1 24.6788 12.5727 9.93116
1 23.8876 11.7533 9.94382
1 25.4484 12.5386 10.7385
1 26.2421 11.7449 10.7385
1 26.2548 12.5226 9.94543
1 25.4547 11.7465 9.93763
1 27.0358 12.5386 10.7385
1 27.8295 11.7449 10.7385
1 27.8241 12.5496 9.94491
1 27.0489 11.7328 9.94376
1 28.6232 12.5386 10.7385
1 29.4169 11.7449 10.7385
1 29.3738 12.5299 9.88881
1 28.6078 11.7565 9.94241
1 0.05 10.9512 10.7385
1 0.843701 10.1575 10.7385
1 0.887403 10.9321 9.91852
1 0.116027 10.1546 9.92853
1 1.6374 10.9512 10.7385
1 2.4311 10.1575 10.7385
1 2.44177 10.9602 9.92985
1 1.6711 10.1627 9.93445
1 3.2248 10.9512 10.7385
1 4.0185 10.1575 10.7385
1 4.00611 10.9668 9.94775
1 3.22997 10.1855 9.9336
1 4.8122 10.9512 10.7385
1 5.6059 10.1575 10.7385
1 5.59183 10.9241 9.96685
1 4.81102 10.1547 9.955
1 6.3996 10.9512 10.7385
1 7.1933 10.1575 10.7385
1 7.17982 10.9275 9.95512
1 6.4227 10.1703 9.97001
1 7.98701 10.9512 10.7385
1 8.78071 10.1575 10.7385
1 8.81078 10.943 9.93438
1 7.99851 10.1527 9.95984
1 9.57441 10.9512 10.7385
1 10.3681 10.1575 10.7385
1 10.3777 10.9462 9.956
1 9.59126 10.1568 9.94348
1 11.1618 10.9512 10.7385
1 11.9555 10.1575 10.7385
1 11.9586 10.9519 9.92988
1 11.1535 10.16 9.96298
1 12.7492 10.9512 10.7385
1 13.5429 10.1575 10.7385
1 13.5703 10.9612 9.93214
1 12.7582 10.1717 9.93204
1 14.3366 10.9512 10.7385
1 15.1303 10.1575 10.7385
1 15.1214 10.9531 9.9563
1 14.3559 10.1457 9.94246
1 15.924 10.9512 10.7385
1 16.7177 10.1575 10.7385
1 16.707 10.9435 9.9468
1 15.9067 10.1691 9.94398
1 17.5114 10.9512 10.7385
1 18.3051 10.1575 10.7385
1 18.3038 10.9317 9.93422
1 17.511 10.1623 9.93901
1 19.0988 10.9512 10.7385
1 19.8925 10.1575 10.7385
1 19.8844 10.9407 9.93496
1 19.1037 10.1859 9.9529
1 20.6862 10.9512 10.7385
1 21.4799 10.1575 10.7385
1 21.4832 10.9613 9.96984
1 20.678 10.1571 9.95964
1 22.2736 10.9512 10.7385
1 23.0673 10.1575 10.7385
1 23.0488 10.9721 9.94997
1 22.2565 10.1686 9.96308
1 23.861 10.9512 10.7385
1 24.6547 10.1575 10.7385
1 24.6762 10.9694 9.9517
1 23.8547 10.1564 9.95072
1 25.4484 10.9512 10.7385
1 26.2421 10.1575 10.7385
1 26.2349 10.9501 9.94441
1 25.4408 10.1646 9.96618
1 27.0358 10.9512 10.7385
1 27.8295 10.1575 10.7385
1 27.813 10.9248 9.92965
1 27.0286 10.1311 9.93754
1 28.6232 10.9512 10.7385
1 29.4169 10.1575 10.7385
1 29.3454 10.9458 9.89402
1 28.5927 10.1402 9.93779
1 0.05 9.36379 10.7385
1 0.843701 8.57009 10.7385
1 0.876661 9.37213 9.92841
1 0.0974304 8.56887 9.92496
1 1.6374 9.36379 10.7385
1 2.4311 8.57009 10.7385
1 2.44652 9.35892 9.9589
1 1.6551 8.57154 9.95984
1 3.2248 9.36379 10.7385
1 4.0185 8.57009 10.7385
1 4.02985 9.3597 9.93508
1 3.21349 8.57095 9.96774
1 4.8122 9.36379 10.7385
1 5.6059 8.57009 10.7385
1 5.61319 9.34611 9.96472
1 4.80209 8.56331 9.96137
1 6.3996 9.36379 10.7385
1 7.1933 8.57009 10.7385
1 7.18662 9.35156 9.92971
1 6.41352 8.54893 9.94093
1 7.98701 9.36379 10.7385
1 8.78071 8.57009 10.7385
1 8.80298 9.39631 9.93634
1 8.01927 8.59278 9.94528
1 9.57441 9.36379 10.7385
1 10.3681 8.57009 10.7385
1 10.3843 9.35932 9.93762
1 9.57599 8.60715 9.9588
1 11.1618 9.36379 10.7385
1 11.9555 8.57009 10.7385
1 11.9734 9.35085 9.94852
1 11.1801 8.56929 9.94213
1 12.7492 9.36379 10.7385
1 13.5429 8.57009 10.7385
1 13.5504 9.37758 9.95402
1 12.7564 8.57399 9.94449
1 14.3366 9.36379 10.7385
1 15.1303 8.57009 10.7385
1 15.1198 9.36576 9.95449
1 14.3436 8.56533 9.9286
1 15.924 9.36379 10.7385
1 16.7177 8.57009 10.7385
1 16.6958 9.36658 9.94111
1 15.9122 8.55188 9.95892
1 17.5114 9.36379 10.7385
1 18.3051 8.57009 10.7385
1 18.3134 9.38211 9.96261
1 17.5064 8.56958 9.93854
1 19.0988 9.36379 10.7385
1 19.8925 8.57009 10.7385
1 19.8782 9.38782 9.93821
1 19.089 8.56438 9.93946
1 20.6862 9.36379 10.7385
1 21.4799 8.57009 10.7385
1 21.4577 9.35761 9.95042
1 20.6788 8.56713 9.94282
1 22.2736 9.36379 10.7385
1 23.0673 8.57009 10.7385
1 23.0507 9.3663 9.93929
1 22.2825 8.56927 9.96904
1 23.861 9.36379 10.7385
1 24.6547 8.57009 10.7385
1 24.6791 9.34722 9.96616
1 23.8436 8.56516 9.95783
1 25.4484 9.36379 10.7385
1 26.2421 8.57009 10.7385
1 26.2462 9.3391 9.9267
1 25.4481 8.55853 9.9261
1 27.0358 9.36379 10.7385
1 27.8295 8.57009 10.7385
1 27.8174 9.353 9.94134
1 27.0231 8.54552 9.94329
1 28.6232 9.36379 10.7385
1 29.4169 8.57009 10.7385
1 29.3223 9.35908 9.90227
1 28.5764 8.56784 9.91675
1 0.05 7.77639 10.7385
1 0.843701 6.98268 10.7385
1 0.846714 7.81442 9.92743
1 0.0921829 6.99687 9.91804
1 1.6374 7.77639 10.7385
1 2.4311 6.98268 10.7385
1 2.45567 7.76789 9.95088
1 1.63037 6.99631 9.93665
1 3.2248 7.77639 10.7385
1 4.0185 6.98268 10.7385
1 4.0198 7.779 9.94843
1 3.22345 6.97735 9.93342
1 4.8122 7.77639 10.7385
1 5.6059 6.98268 10.7385
1 5.61668 7.78327 9.9365
1 4.80553 7.00826 9.93034
1 6.3996 7.77639 10.7385
1 7.1933 6.98268 10.7385
1 7.20073 7.79488 9.93789
1 6.40471 6.99285 9.94054
1 7.98701 7.77639 10.7385
1 8.78071 6.98268 10.7385
1 8.78736 7.77237 9.95134
1 7.98466 6.98064 9.94184
1 9.57441 7.77639 10.7385
1 10.3681 6.98268 10.7385
1 10.351 7.77144 9.94158
1 9.57151 7.00832 9.92475
1 11.1618 7.77639 10.7385
1 11.9555 6.98268 10.7385
1 11.9693 7.77769 9.94325
1 11.1379 7.00238 9.93288
1 12.7492 7.77639 10.7385
1 13.5429 6.98268 10.7385
1 13.535 7.7932 9.95634
1 12.7464 7.00261 9.94191
1 14.3366 7.77639 10.7385
1 15.1303 6.98268 10.7385
1 15.1216 7.77532 9.93848
1 14.3205 6.98604 9.94428
1 15.924 7.77639 10.7385
1 16.7177 6.98268 10.7385
1 16.7245 7.73842 9.96983
1 15.9171 6.99529 9.96955
1 17.5114 7.77639 10.7385
1 18.3051 6.98268 10.7385
1 18.2992 7.76783 9.94597
1 17.5222 6.94594 9.9349
1 19.0988 7.77639 10.7385
1 19.8925 6.98268 10.7385
1 19.8651 7.76465 9.95168
1 19.1057 6.98691 9.94103
1 20.6862 7.77639 10.7385
1 21.4799 6.98268 10.7385
1 21.4982 7.79222 9.97386
1 20.7247 6.99551 9.93447
1 22.2736 7.77639 10.7385
1 23.0673 6.98268 10.7385
1 23.0671 7.77785 9.96707
1 22.2739 6.97527 9.93307
1 23.861 7.77639 10.7385
1 24.6547 6.98268 10.7385
1 24.6708 7.77124 9.93533
1 23.8478 6.96208 9.95697
1 25.4484 7.77639 10.7385
1 26.2421 6.98268 10.7385
1 26.2507 7.76721 9.9549
1 25.4381 6.9855 9.93125
1 27.0358 7.77639 10.7385
1 27.8295 6.98268 10.7385
1 27.7878 7.7686 9.91661
1 27.0296 6.96827 9.92458
1 28.6232 7.77639 10.7385
1 29.4169 6.98268 10.7385
1 29.3173 7.78206 9.90943
1 28.5964 6.99381 9.94032
1 0.05 6.18898 10.7385
1 0.843701 5.39528 10.7385
1 0.884468 6.21352 9.93161
1 0.140929 5.39013 9.91248
1 1.6374 6.18898 10.7385
1 2.4311 5.39528 10.7385
1 2.44612 6.19707 9.94464
1 1.64397 5.36095 9.93971
1 3.2248 6.18898 10.7385
1 4.0185 5.39528 10.7385
1 4.01694 6.18802 9.932
1 3.22384 5.40967 9.93678
1 4.8122 6.18898 10.7385
1 5.6059 5.39528 10.7385
1 5.6125 6.20306 9.95445
1 4.83205 5.40217 9.95319
1 6.3996 6.18898 10.7385
1 7.1933 5.39528 10.7385
1 7.19481 6.19686 9.95631
1 6.37856 5.39363 9.9465
1 7.98701 6.18898 10.7385
1 8.78071 5.39528 10.7385
1 8.78294 6.20422 9.9533
1 7.99694 5.40526 9.95202