9376
Atoms. Timestep: 40000
1 0.075 3.55271e-15 10.874
1 0.868701 29.2063 10.874
1 0.90146 29.9403 10.0303
1 0.167609 29.1825 10.0332
1 1.6624 3.55271e-15 10.874
1 2.4561 29.2063 10.874
1 2.45869 29.9382 10.0231
1 1.67678 29.1795 10.0534
1 3.2498 3.55271e-15 10.874
1 4.0435 29.2063 10.874
1 4.03222 29.9363 10.0464
1 3.25826 29.1729 10.0812
1 4.8372 3.55271e-15 10.874
1 5.6309 29.2063 10.874
1 5.61652 29.9564 10.0288
1 4.8456 29.1764 10.0971
1 6.4246 3.55271e-15 10.874
1 7.2183 29.2063 10.874
1 7.22593 29.9542 10.0482
1 6.42492 29.1936 10.0793
1 8.01201 3.55271e-15 10.874
1 8.80571 29.2063 10.874
1 8.8236 29.9291 10.0373
1 8.01665 29.1783 10.0864
1 9.59941 3.55271e-15 10.874
1 10.3931 29.2063 10.874
1 10.3645 29.9231 10.0583
1 9.59971 29.17 10.1021
1 11.1868 3.55271e-15 10.874
1 11.9805 29.2063 10.874
1 11.9838 29.9262 10.0348
1 11.1564 29.1734 10.0711
1 12.7742 3.55271e-15 10.874
1 13.5679 29.2063 10.874
1 13.548 29.9347 10.0318
1 12.7767 29.1727 10.0632
1 14.3616 3.55271e-15 10.874
1 15.1553 29.2063 10.874
1 15.1346 29.9545 10.0406
1 14.3401 29.1605 10.074
1 15.949 3.55271e-15 10.874
1 16.7427 29.2063 10.874
1 16.7332 29.9638 10.0291
1 15.969 29.1996 10.0395
1 17.5364 3.55271e-15 10.874
1 18.3301 29.2063 10.874
1 18.3041 29.9197 10.0462
1 17.5131 29.1803 10.0681
1 19.1238 3.55271e-15 10.874
1 19.9175 29.2063 10.874
1 19.9325 29.9285 10.0227
1 19.129 29.1619 10.065
1 20.7112 3.55271e-15 10.874
1 21.5049 29.2063 10.874
1 21.4779 29.9486 10.0655
1 20.7043 29.1778 10.0657
1 22.2986 3.55271e-15 10.874
1 23.0923 29.2063 10.874
1 23.1053 29.9336 10.0313
1 22.3065 29.177 10.0545
1 23.886 3.55271e-15 10.874
1 24.6797 29.2063 10.874
1 24.6585 29.928 10.052
1 23.8986 29.1708 10.0718
1 25.4734 3.55271e-15 10.874
1 26.2671 29.2063 10.874
1 26.2734 29.9559 10.0276
1 25.4549 29.1705 10.0731
1 27.0608 3.55271e-15 10.874
1 27.8545 29.2063 10.874
1 27.7926 29.9365 10.0298
1 27.0362 29.156 10.0626
1 28.6482 3.55271e-15 10.874
1 29.4419 29.2063 10.874
1 29.3658 29.9337 10.0146
1 28.6064 29.178 10.0639
1 0.075 28.4126 10.874
1 0.868701 27.6189 10.874
1 0.897311 28.4018 10.0702
1 0.138958 27.6185 10.0637
1 1.6624 28.4126 10.874
1 2.4561 27.6189 10.874
1 2.44892 28.369 10.0703
1 1.69774 27.589 10.0505
1 3.2498 28.4126 10.874
1 4.0435 27.6189 10.874
1 4.04183 28.3622 10.0743
1 3.25082 27.6013 10.0899
1 4.8372 28.4126 10.874
1 5.6309 27.6189 10.874
1 5.65405 28.3928 10.0897
1 4.87204 27.5878 10.0743
1 6.4246 28.4126 10.874
1 7.2183 27.6189 10.874
1 7.20756 28.3973 10.0838
1 6.44299 27.6244 10.0835
1 8.01201 28.4126 10.874
1 8.80571 27.6189 10.874
1 8.80601 28.388 10.0782
1 7.99859 27.6266 10.072
1 9.59941 28.4126 10.874
1 10.3931 27.6189 10.874
1 10.3763 28.3799 10.0773
1 9.60907 27.6125 10.0809
1 11.1868 28.4126 10.874
1 11.9805 27.6189 10.874
1 11.9672 28.4018 10.0675
1 11.1874 27.5912 10.0653
1 12.7742 28.4126 10.874
1 13.5679 27.6189 10.874
1 13.5831 28.3943 10.0662
1 12.7666 27.6206 10.0847
1 14.3616 28.4126 10.874
1 15.1553 27.6189 10.874
1 15.1513 28.3863 10.0605
1 14.3673 27.6269 10.0708
1 15.949 28.4126 10.874
1 16.7427 27.6189 10.874
1 16.7561 28.4033 10.0798
1 15.9447 27.6016 10.077
1 17.5364 28.4126 10.874
1 18.3301 27.6189 10.874
1 18.3343 28.4038 10.0743
1 17.5242 27.6241 10.0796
1 19.1238 28.4126 10.874
1 19.9175 27.6189 10.874
1 19.9323 28.37 10.073
1 19.1144 27.6144 10.0875
1 20.7112 28.4126 10.874
1 21.5049 27.6189 10.874
1 21.5206 28.4025 10.0843
1 20.7137 27.601 10.0639
1 22.2986 28.4126 10.874
1 23.0923 27.6189 10.874
1 23.0718 28.4163 10.0559
1 22.2829 27.6272 10.0684
1 23.886 28.4126 10.874
1 24.6797 27.6189 10.874
1 24.6742 28.399 10.0954
1 23.8887 27.5991 10.1043
1 25.4734 28.4126 10.874
1 26.2671 27.6189 10.874
1 26.2566 28.4177 10.0867
1 25.4581 27.6122 10.078
1 27.0608 28.4126 10.874
1 27.8545 27.6189 10.874
1 27.8305 28.3723 10.0939
1 27.0459 27.5938 10.0769
1 28.6482 28.4126 10.874
1 29.4419 27.6189 10.874
1 29.3606 28.4153 10.038
1 28.6452 27.6112 10.0967
1 0.075 26.8252 10.874
1 0.868701 26.0315 10.874
1 0.918823 26.8285 10.076
1 0.132283 26.038 10.0446
1 1.6624 26.8252 10.874
1 2.4561 26.0315 10.874
1 2.45858 26.7993 10.0602
1 1.67876 26.0401 10.0807
1 3.2498 26.8252 10.874
1 4.0435 26.0315 10.874
1 4.04251 26.791 10.0649
1 3.23807 26.0078 10.0664
1 4.8372 26.8252 10.874
1 5.6309 26.0315 10.874
1 5.63652 26.7971 10.0674
1 4.85268 26.0078 10.0976
1 6.4246 26.8252 10.874
1 7.2183 26.0315 10.874
1 7.2132 26.8067 10.0911
1 6.43796 26.0254 10.0759
1 8.01201 26.8252 10.874
1 8.80571 26.0315 10.874
1 8.78622 26.7983 10.1048
1 7.99145 26.0099 10.0846
1 9.59941 26.8252 10.874
1 10.3931 26.0315 10.874
1 10.3984 26.8234 10.0786
1 9.59566 26.0135 10.0911
1 11.1868 26.8252 10.874
1 11.9805 26.0315 10.874
1 11.9947 26.8354 10.0827
1 11.2284 26.013 10.0789
1 12.7742 26.8252 10.874
1 13.5679 26.0315 10.874
1 13.5884 26.814 10.0666
1 12.786 26.0317 10.0716
1 14.3616 26.8252 10.874
1 15.1553 26.0315 10.874
1 15.1696 26.8495 10.0743
1 14.3705 26.0347 10.0801
1 15.949 26.8252 10.874
1 16.7427 26.0315 10.874
1 16.773 26.8048 10.0881
1 15.9363 26.0217 10.0762
1 17.5364 26.8252 10.874
1 18.3301 26.0315 10.874
1 18.3209 26.8072 10.102
1 17.5008 25.9998 10.0735
1 19.1238 26.8252 10.874
1 19.9175 26.0315 10.874
1 19.9159 26.817 10.0793
1 19.1323 26.0384 10.0861
1 20.7112 26.8252 10.874
1 21.5049 26.0315 10.874
1 21.4953 26.8194 10.0604
1 20.7097 26.0323 10.0845
1 22.2986 26.8252 10.874
1 23.0923 26.0315 10.874
1 23.061 26.8158 10.076
1 22.3061 26.016 10.069
1 23.886 26.8252 10.874
1 24.6797 26.0315 10.874
1 24.666 26.8007 10.0923
1 23.8658 26.0258 10.0836
1 25.4734 26.8252 10.874
1 26.2671 26.0315 10.874
1 26.2673 26.8292 10.0911
1 25.4474 26.0237 10.1167
1 27.0608 26.8252 10.874
1 27.8545 26.0315 10.874
1 27.8095 26.8288 10.0744
1 27.038 26.0193 10.0926
1 28.6482 26.8252 10.874
1 29.4419 26.0315 10.874
1 29.3669 26.8176 10.0577
1 28.6068 26.0344 10.0756
1 0.075 25.2378 10.874
1 0.868701 24.4441 10.874
1 0.892471 25.231 10.0702
1 0.14987 24.4314 10.0471
1 1.6624 25.2378 10.874
1 2.4561 24.4441 10.874
1 2.46255 25.2068 10.0748
1 1.69133 24.4469 10.0834
1 3.2498 25.2378 10.874
1 4.0435 24.4441 10.874
1 4.07362 25.2217 10.0883
1 3.25962 24.4452 10.0868
1 4.8372 25.2378 10.874
1 5.6309 24.4441 10.874
1 5.64197 25.218 10.0858
1 4.84943 24.4415 10.0663
1 6.4246 25.2378 10.874
1 7.2183 24.4441 10.874
1 7.22378 25.2255 10.0709
1 6.45914 24.4277 10.0831
1 8.01201 25.2378 10.874
1 8.80571 24.4441 10.874
1 8.81149 25.1887 10.0698
1 8.00468 24.4467 10.0859
1 9.59941 25.2378 10.874
1 10.3931 24.4441 10.874
1 10.406 25.2319 10.1131
1 9.61054 24.4576 10.0875
1 11.1868 25.2378 10.874
1 11.9805 24.4441 10.874
1 11.9773 25.2151 10.098
1 11.2044 24.4364 10.0916
1 12.7742 25.2378 10.874
1 13.5679 24.4441 10.874
1 13.5815 25.242 10.0563
1 12.769 24.448 10.0855
1 14.3616 25.2378 10.874
1 15.1553 24.4441 10.874
1 15.1549 25.2415 10.0703
1 14.3841 24.4114 10.0712
1 15.949 25.2378 10.874
1 16.7427 24.4441 10.874
1 16.7172 25.2427 10.087
1 15.9369 24.444 10.0866
1 17.5364 25.2378 10.874
1 18.3301 24.4441 10.874
1 18.3216 25.2247 10.0801
1 17.519 24.445 10.0702
1 19.1238 25.2378 10.874
1 19.9175 24.4441 10.874
1 19.9367 25.2332 10.0962
1 19.1311 24.4379 10.0554
1 20.7112 25.2378 10.874
1 21.5049 24.4441 10.874
1 21.5301 25.2334 10.0657
1 20.6963 24.4599 10.0743
1 22.2986 25.2378 10.874
1 23.0923 24.4441 10.874
1 23.0941 25.2378 10.0812
1 22.3044 24.4265 10.1141
1 23.886 25.2378 10.874
1 24.6797 24.4441 10.874
1 24.6653 25.2423 10.0659
1 23.8789 24.4519 10.095
1 25.4734 25.2378 10.874
1 26.2671 24.4441 10.874
1 26.2696 25.228 10.1095
1 25.4738 24.4555 10.0855
1 27.0608 25.2378 10.874
1 27.8545 24.4441 10.874
1 27.8373 25.2521 10.0819
1 27.0557 24.4152 10.0587
1 28.6482 25.2378 10.874
1 29.4419 24.4441 10.874
1 29.3674 25.2531 10.0574
1 28.6205 24.4509 10.0785
1 0.075 23.6504 10.874
1 0.868701 22.8567 10.874
1 0.895634 23.6676 10.079
1 0.122665 22.852 10.046
1 1.6624 23.6504 10.874
1 2.4561 22.8567 10.874
1 2.47019 23.6482 10.0923
1 1.70454 22.8191 10.0797
1 3.2498 23.6504 10.874
1 4.0435 22.8567 10.874
1 4.06495 23.6452 10.0892
1 3.25084 22.8476 10.0831
1 4.8372 23.6504 10.874
1 5.6309 22.8567 10.874
1 5.64433 23.6324 10.0837
1 4.83063 22.8607 10.0756
1 6.4246 23.6504 10.874
1 7.2183 22.8567 10.874
1 7.22443 23.6275 10.0608
1 6.39595 22.847 10.0641
1 8.01201 23.6504 10.874
1 8.80571 22.8567 10.874
1 8.82497 23.649 10.1051
1 8.02973 22.8619 10.0958
1 9.59941 23.6504 10.874
1 10.3931 22.8567 10.874
1 10.4103 23.6538 10.0798
1 9.61831 22.8547 10.0856
1 11.1868 23.6504 10.874
1 11.9805 22.8567 10.874
1 11.9954 23.652 10.0845
1 11.187 22.8434 10.0753
1 12.7742 23.6504 10.874
1 13.5679 22.8567 10.874
1 13.5651 23.6572 10.0789
1 12.7603 22.878 10.0745
1 14.3616 23.6504 10.874
1 15.1553 22.8567 10.874
1 15.1613 23.6416 10.0773
1 14.3554 22.8675 10.0746
1 15.949 23.6504 10.874
1 16.7427 22.8567 10.874
1 16.7121 23.6402 10.0827
1 15.9524 22.8575 10.088
1 17.5364 23.6504 10.874
1 18.3301 22.8567 10.874
1 18.3306 23.6537 10.0934
1 17.5113 22.8453 10.0777
1 19.1238 23.6504 10.874
1 19.9175 22.8567 10.874
1 19.9258 23.6294 10.0681
1 19.1147 22.8436 10.0831
1 20.7112 23.6504 10.874
1 21.5049 22.8567 10.874
1 21.4896 23.6499 10.0691
1 20.7026 22.861 10.0801
1 22.2986 23.6504 10.874
1 23.0923 22.8567 10.874
1 23.088 23.6512 10.0942
1 22.2748 22.8558 10.0664
1 23.886 23.6504 10.874
1 24.6797 22.8567 10.874
1 24.6771 23.6538 10.0908
1 23.8852 22.8655 10.0841
1 25.4734 23.6504 10.874
1 26.2671 22.8567 10.874
1 26.2677 23.6563 10.0585
1 25.4912 22.8238 10.0726
1 27.0608 23.6504 10.874
1 27.8545 22.8567 10.874
1 27.8341 23.6371 10.0594
1 27.067 22.8471 10.0647
1 28.6482 23.6504 10.874
1 29.4419 22.8567 10.874
1 29.3674 23.6587 10.0466
1 28.6142 22.8416 10.0737
1 0.075 22.063 10.874
1 0.868701 21.2693 10.874
1 0.914621 22.0394 10.0861
1 0.139525 21.2636 10.0394
1 1.6624 22.063 10.874
1 2.4561 21.2693 10.874
1 2.48909 22.0772 10.0777
1 1.72747 21.262 10.0826
1 3.2498 22.063 10.874
1 4.0435 21.2693 10.874
1 4.05482 22.0775 10.0836
1 3.26453 21.257 10.0794
1 4.8372 22.063 10.874
1 5.6309 21.2693 10.874
1 5.63894 22.049 10.0569
1 4.87048 21.2702 10.0805
1 6.4246 22.063 10.874
1 7.2183 21.2693 10.874
1 7.23905 22.0703 10.0789
1 6.42446 21.2657 10.0624
1 8.01201 22.063 10.874
1 8.80571 21.2693 10.874
1 8.82304 22.0315 10.0791
1 8.00665 21.2712 10.0638
1 9.59941 22.063 10.874
1 10.3931 21.2693 10.874
1 10.4211 22.0675 10.0896
1 9.59306 21.2749 10.0802
1 11.1868 22.063 10.874
1 11.9805 21.2693 10.874
1 11.9906 22.0538 10.0891
1 11.2154 21.273 10.1055
1 12.7742 22.063 10.874
1 13.5679 21.2693 10.874
1 13.5461 22.0766 10.0887
1 12.7777 21.2711 10.0978
1 14.3616 22.063 10.874
1 15.1553 21.2693 10.874
1 15.1446 22.0515 10.0908
1 14.3674 21.2575 10.0771
1 15.949 22.063 10.874
1 16.7427 21.2693 10.874
1 16.7166 22.0528 10.0872
1 15.9316 21.2831 10.0797
1 17.5364 22.063 10.874
1 18.3301 21.2693 10.874
1 18.3368 22.067 10.0781
1 17.5177 21.2723 10.0906
1 19.1238 22.063 10.874
1 19.9175 21.2693 10.874
1 19.9128 22.0948 10.0866
1 19.1389 21.2724 10.0818
1 20.7112 22.063 10.874
1 21.5049 21.2693 10.874
1 21.4933 22.0648 10.0722
1 20.6998 21.2774 10.0861
1 22.2986 22.063 10.874
1 23.0923 21.2693 10.874
1 23.1078 22.0656 10.0556
1 22.3149 21.2591 10.0535
1 23.886 22.063 10.874
1 24.6797 21.2693 10.874
1 24.6811 22.0379 10.1151
1 23.8811 21.2861 10.0749
1 25.4734 22.063 10.874
1 26.2671 21.2693 10.874
1 26.2631 22.046 10.0698
1 25.4773 21.2522 10.0938
1 27.0608 22.063 10.874
1 27.8545 21.2693 10.874
1 27.8272 22.0718 10.074
1 27.0391 21.239 10.085
1 28.6482 22.063 10.874
1 29.4419 21.2693 10.874
1 29.3693 22.0652 10.0166
1 28.6189 21.2666 10.0637
1 0.075 20.4756 10.874
1 0.868701 19.6819 10.874
1 0.906081 20.4912 10.0455
1 0.156548 19.6855 10.0421
1 1.6624 20.4756 10.874
1 2.4561 19.6819 10.874
1 2.50484 20.4746 10.0835
1 1.6789 19.6706 10.0899
1 3.2498 20.4756 10.874
1 4.0435 19.6819 10.874
1 4.03388 20.4633 10.0912
1 3.26808 19.6717 10.0839
1 4.8372 20.4756 10.874
1 5.6309 19.6819 10.874
1 5.64924 20.4703 10.0916
1 4.86763 19.6701 10.0908
1 6.4246 20.4756 10.874
1 7.2183 19.6819 10.874
1 7.23223 20.4799 10.0617
1 6.43877 19.6564 10.0552
1 8.01201 20.4756 10.874
1 8.80571 19.6819 10.874
1 8.7862 20.4458 10.0638
1 7.98138 19.6633 10.087
1 9.59941 20.4756 10.874
1 10.3931 19.6819 10.874
1 10.3904 20.4902 10.0772
1 9.60394 19.7031 10.0714
1 11.1868 20.4756 10.874
1 11.9805 19.6819 10.874
1 11.9817 20.4555 10.0923
1 11.1671 19.674 10.0694
1 12.7742 20.4756 10.874
1 13.5679 19.6819 10.874
1 13.5994 20.4742 10.0796
1 12.8035 19.6906 10.0739
1 14.3616 20.4756 10.874
1 15.1553 19.6819 10.874
1 15.1423 20.4709 10.0769
1 14.3779 19.6801 10.0919
1 15.949 20.4756 10.874
1 16.7427 19.6819 10.874
1 16.7343 20.4925 10.086
1 15.9459 19.679 10.0658
1 17.5364 20.4756 10.874
1 18.3301 19.6819 10.874
1 18.3176 20.4648 10.1044
1 17.5456 19.6987 10.1078
1 19.1238 20.4756 10.874
1 19.9175 19.6819 10.874
1 19.9429 20.449 10.0826
1 19.1258 19.6921 10.1076
1 20.7112 20.4756 10.874
1 21.5049 19.6819 10.874
1 21.5043 20.4795 10.072
1 20.7344 19.6777 10.065
1 22.2986 20.4756 10.874
1 23.0923 19.6819 10.874
1 23.0903 20.4978 10.0967
1 22.31 19.6982 10.0683
1 23.886 20.4756 10.874
1 24.6797 19.6819 10.874
1 24.6852 20.4687 10.081
1 23.8785 19.6879 10.0784
1 25.4734 20.4756 10.874
1 26.2671 19.6819 10.874
1 26.2619 20.4494 10.0747
1 25.459 19.6953 10.0808
1 27.0608 20.4756 10.874
1 27.8545 19.6819 10.874
1 27.8238 20.4792 10.0934
1 27.0272 19.6901 10.0914
1 28.6482 20.4756 10.874
1 29.4419 19.6819 10.874
1 29.3648 20.4977 10.0402
1 28.6258 19.6934 10.0524
1 0.075 18.8882 10.874
1 0.868701 18.0945 10.874
1 0.892291 18.8868 10.0512
1 0.115949 18.1166 10.0613
1 1.6624 18.8882 10.874
1 2.4561 18.0945 10.874
1 2.45492 18.8772 10.0899
1 1.67887 18.1065 10.0507
1 3.2498 18.8882 10.874
1 4.0435 18.0945 10.874
1 4.07103 18.9144 10.0764
1 3.26853 18.1119 10.0903
1 4.8372 18.8882 10.874
1 5.6309 18.0945 10.874
1 5.64879 18.8823 10.0702
1 4.86052 18.1082 10.1062
1 6.4246 18.8882 10.874
1 7.2183 18.0945 10.874
1 7.21233 18.8944 10.0624
1 6.41726 18.1063 10.0424
1 8.01201 18.8882 10.874
1 8.80571 18.0945 10.874
1 8.81448 18.9092 10.0687
1 8.03527 18.0938 10.0795
1 9.59941 18.8882 10.874
1 10.3931 18.0945 10.874
1 10.3706 18.8858 10.0987
1 9.58878 18.1171 10.0928
1 11.1868 18.8882 10.874
1 11.9805 18.0945 10.874
1 11.9797 18.9267 10.0662
1 11.1652 18.0895 10.0794
1 12.7742 18.8882 10.874
1 13.5679 18.0945 10.874
1 13.5789 18.9015 10.0796
1 12.755 18.1204 10.0795
1 14.3616 18.8882 10.874
1 15.1553 18.0945 10.874
1 15.1826 18.9124 10.0976
1 14.3486 18.1148 10.0587
1 15.949 18.8882 10.874
1 16.7427 18.0945 10.874
1 16.7369 18.8879 10.0812
1 15.9427 18.0767 10.07
1 17.5364 18.8882 10.874
1 18.3301 18.0945 10.874
1 18.308 18.8691 10.0906
1 17.556 18.081 10.091
1 19.1238 18.8882 10.874
1 19.9175 18.0945 10.874
1 19.9128 18.8875 10.0946
1 19.1217 18.0886 10.0825
1 20.7112 18.8882 10.874
1 21.5049 18.0945 10.874
1 21.5032 18.8823 10.0509
1 20.7306 18.1178 10.0979
1 22.2986 18.8882 10.874
1 23.0923 18.0945 10.874
1 23.0666 18.9079 10.0898
1 22.3034 18.101 10.097
1 23.886 18.8882 10.874
1 24.6797 18.0945 10.874
1 24.6846 18.8798 10.0727
1 23.8695 18.0936 10.0679
1 25.4734 18.8882 10.874
1 26.2671 18.0945 10.874
1 26.2338 18.8896 10.1108
1 25.4367 18.0807 10.0626
1 27.0608 18.8882 10.874
1 27.8545 18.0945 10.874
1 27.8238 18.8988 10.0676
1 27.031 18.1239 10.0608
1 28.6482 18.8882 10.874
1 29.4419 18.0945 10.874
1 29.391 18.8998 10.0366
1 28.5903 18.1216 10.0419
1 0.075 17.3008 10.874
1 0.868701 16.5071 10.874
1 0.876346 17.3346 10.0624
1 0.149654 16.508 10.0512
1 1.6624 17.3008 10.874
1 2.4561 16.5071 10.874
1 2.46381 17.2985 10.093
1 1.67932 16.5194 10.0747
1 3.2498 17.3008 10.874
1 4.0435 16.5071 10.874
1 4.05915 17.2904 10.0823
1 3.26596 16.5056 10.0908
1 4.8372 17.3008 10.874
1 5.6309 16.5071 10.874
1 5.61409 17.3199 10.1004
1 4.83487 16.4859 10.0823
1 6.4246 17.3008 10.874
1 7.2183 16.5071 10.874
1 7.22538 17.287 10.091
1 6.42096 16.5194 10.0876
1 8.01201 17.3008 10.874
1 8.80571 16.5071 10.874
1 8.81365 17.2996 10.0869
1 8.02133 16.5086 10.0762
1 9.59941 17.3008 10.874
1 10.3931 16.5071 10.874
1 10.3818 17.2971 10.0948
1 9.58002 16.495 10.0911
1 11.1868 17.3008 10.874
1 11.9805 16.5071 10.874
1 11.9815 17.2924 10.0771
1 11.1806 16.516 10.0718
1 12.7742 17.3008 10.874
1 13.5679 16.5071 10.874
1 13.5744 17.3008 10.0786
1 12.7698 16.4957 10.0754
1 14.3616 17.3008 10.874
1 15.1553 16.5071 10.874
1 15.1674 17.2908 10.0661
1 14.3555 16.4968 10.0782
1 15.949 17.3008 10.874
1 16.7427 16.5071 10.874
1 16.7268 17.3251 10.0583
1 15.9628 16.5141 10.0597
1 17.5364 17.3008 10.874
1 18.3301 16.5071 10.874
1 18.3373 17.2965 10.0733
1 17.5098 16.4906 10.0851
1 19.1238 17.3008 10.874
1 19.9175 16.5071 10.874
1 19.9288 17.2959 10.1114
1 19.1063 16.4993 10.0961
1 20.7112 17.3008 10.874
1 21.5049 16.5071 10.874
1 21.5042 17.2815 10.0752
1 20.7086 16.504 10.0824
1 22.2986 17.3008 10.874
1 23.0923 16.5071 10.874
1 23.0763 17.3041 10.0769
1 22.2872 16.4823 10.082
1 23.886 17.3008 10.874
1 24.6797 16.5071 10.874
1 24.6793 17.2972 10.1027
1 23.8589 16.4959 10.0645
1 25.4734 17.3008 10.874
1 26.2671 16.5071 10.874
1 26.2454 17.3231 10.0936
1 25.4672 16.5218 10.1282
1 27.0608 17.3008 10.874
1 27.8545 16.5071 10.874
1 27.8011 17.3127 10.0619
1 27.043 16.5169 10.0744
1 28.6482 17.3008 10.874
1 29.4419 16.5071 10.874
1 29.3556 17.3185 10.0739
1 28.6114 16.5244 10.0606
1 0.075 15.7134 10.874
1 0.868701 14.9197 10.874
1 0.922242 15.7046 10.0422
1 0.138027 14.9038 10.0408
1 1.6624 15.7134 10.874
1 2.4561 14.9197 10.874
1 2.48099 15.7149 10.0898
1 1.69631 14.921 10.0742
1 3.2498 15.7134 10.874
1 4.0435 14.9197 10.874
1 4.03963 15.7227 10.0734
1 3.27868 14.9339 10.0789
1 4.8372 15.7134 10.874
1 5.6309 14.9197 10.874
1 5.63828 15.7107 10.0877
1 4.83692 14.948 10.0725
1 6.4246 15.7134 10.874
1 7.2183 14.9197 10.874
1 7.23442 15.7364 10.0971
1 6.4257 14.8948 10.0864
1 8.01201 15.7134 10.874
1 8.80571 14.9197 10.874
1 8.78623 15.7048 10.0635
1 8.00668 14.9284 10.079
1 9.59941 15.7134 10.874
1 10.3931 14.9197 10.874
1 10.3893 15.7055 10.095
1 9.61748 14.9251 10.0712
1 11.1868 15.7134 10.874
1 11.9805 14.9197 10.874
1 11.9905 15.7235 10.0709
1 11.2019 14.9458 10.086
1 12.7742 15.7134 10.874
1 13.5679 14.9197 10.874
1 13.589 15.7039 10.0794
1 12.77 14.9093 10.0876
1 14.3616 15.7134 10.874
1 15.1553 14.9197 10.874
1 15.1558 15.7162 10.0846
1 14.3506 14.9332 10.061
1 15.949 15.7134 10.874
1 16.7427 14.9197 10.874
1 16.7139 15.7101 10.0895
1 15.9557 14.9232 10.0776
1 17.5364 15.7134 10.874
1 18.3301 14.9197 10.874
1 18.3271 15.7146 10.0652
1 17.5334 14.9136 10.0763
1 19.1238 15.7134 10.874
1 19.9175 14.9197 10.874
1 19.9335 15.704 10.0688
1 19.1326 14.9204 10.0964
1 20.7112 15.7134 10.874
1 21.5049 14.9197 10.874
1 21.5099 15.7103 10.0947
1 20.7101 14.9166 10.0797
1 22.2986 15.7134 10.874
1 23.0923 14.9197 10.874
1 23.0611 15.7041 10.086
1 22.286 14.9024 10.1023
1 23.886 15.7134 10.874
1 24.6797 14.9197 10.874
1 24.6574 15.6935 10.0883
1 23.8465 14.9303 10.1052
1 25.4734 15.7134 10.874
1 26.2671 14.9197 10.874
1 26.2519 15.7257 10.0816
1 25.4746 14.9172 10.0816
1 27.0608 15.7134 10.874
1 27.8545 14.9197 10.874
1 27.8416 15.7059 10.0778
1 27.0327 14.9311 10.0862
1 28.6482 15.7134 10.874
1 29.4419 14.9197 10.874
1 29.3768 15.7151 10.0693
1 28.6176 14.914 10.0713
1 0.075 14.126 10.874
1 0.868701 13.3323 10.874
1 0.898465 14.1023 10.0701
1 0.107937 13.3199 10.0492
1 1.6624 14.126 10.874
1 2.4561 13.3323 10.874
1 2.45329 14.1238 10.0889
1 1.66316 13.3215 10.058
1 3.2498 14.126 10.874
1 4.0435 13.3323 10.874
1 4.04666 14.1017 10.0727
1 3.25701 13.334 10.0769
1 4.8372 14.126 10.874
1 5.6309 13.3323 10.874
1 5.6014 14.1242 10.0602
1 4.82426 13.297 10.1027
1 6.4246 14.126 10.874
1 7.2183 13.3323 10.874
1 7.21685 14.1037 10.0649
1 6.4374 13.351 10.0796
1 8.01201 14.126 10.874
1 8.80571 13.3323 10.874
1 8.78761 14.1309 10.0662
1 7.99934 13.3336 10.0799
1 9.59941 14.126 10.874
1 10.3931 13.3323 10.874
1 10.394 14.1277 10.0795
1 9.62242 13.3495 10.0505
1 11.1868 14.126 10.874
1 11.9805 13.3323 10.874
1 11.9879 14.1137 10.0735
1 11.2112 13.308 10.0899
1 12.7742 14.126 10.874
1 13.5679 13.3323 10.874
1 13.5759 14.1469 10.0886
1 12.7524 13.317 10.0952
1 14.3616 14.126 10.874
1 15.1553 13.3323 10.874
1 15.1551 14.1518 10.0428
1 14.3488 13.3362 10.0788
1 15.949 14.126 10.874
1 16.7427 13.3323 10.874
1 16.7363 14.1121 10.0823
1 15.9188 13.3518 10.0904
1 17.5364 14.126 10.874
1 18.3301 13.3323 10.874
1 18.347 14.1446 10.0444
1 17.5657 13.3266 10.0747
1 19.1238 14.126 10.874
1 19.9175 13.3323 10.874
1 19.9332 14.1362 10.0725
1 19.1352 13.3614 10.0898
1 20.7112 14.126 10.874
1 21.5049 13.3323 10.874
1 21.4999 14.1012 10.069
1 20.7036 13.3363 10.0687
1 22.2986 14.126 10.874
1 23.0923 13.3323 10.874
1 23.0922 14.1257 10.0776
1 22.2996 13.3119 10.0659
1 23.886 14.126 10.874
1 24.6797 13.3323 10.874
1 24.6664 14.1355 10.068
1 23.8782 13.3306 10.0818
1 25.4734 14.126 10.874
1 26.2671 13.3323 10.874
1 26.2627 14.1194 10.0866
1 25.4541 13.3081 10.0777
1 27.0608 14.126 10.874
1 27.8545 13.3323 10.874
1 27.8235 14.1466 10.0598
1 27.0747 13.3229 10.071
1 28.6482 14.126 10.874
1 29.4419 13.3323 10.874
1 29.3991 14.1177 10.0319
1 28.6038 13.3762 10.0738
1 0.075 12.5386 10.874
1 0.868701 11.7449 10.874
1 0.889584 12.5257 10.0722
1 0.102159 11.7398 10.0691
1 1.6624 12.5386 10.874
1 2.4561 11.7449 10.874
1 2.48417 12.5396 10.0704
1 1.67993 11.7435 10.0516
1 3.2498 12.5386 10.874
1 4.0435 11.7449 10.874
1 4.01905 12.5341 10.072
1 3.29184 11.7298 10.0746
1 4.8372 12.5386 10.874
1 5.6309 11.7449 10.874
1 5.61619 12.5572 10.0977
1 4.84976 11.7487 10.0792
1 6.4246 12.5386 10.874
1 7.2183 11.7449 10.874
1 7.17865 12.5308 10.0524
1 6.40689 11.741 10.0569
1 8.01201 12.5386 10.874
1 8.80571 11.7449 10.874
1 8.81875 12.5425 10.0808
1 8.00749 11.6942 10.0469
1 9.59941 12.5386 10.874
1 10.3931 11.7449 10.874
1 10.3865 12.5445 10.0589
1 9.5785 11.7465 10.071
1 11.1868 12.5386 10.874
1 11.9805 11.7449 10.874
1 11.972 12.5001 10.0707
1 11.1876 11.7484 10.093
1 12.7742 12.5386 10.874
1 13.5679 11.7449 10.874
1 13.5587 12.5258 10.0584
1 12.7762 11.7142 10.0835
1 14.3616 12.5386 10.874
1 15.1553 11.7449 10.874
1 15.1725 12.5198 10.0686
1 14.3757 11.7461 10.0937
1 15.949 12.5386 10.874
1 16.7427 11.7449 10.874
1 16.7276 12.5595 10.0909
1 15.9365 11.7399 10.0855
1 17.5364 12.5386 10.874
1 18.3301 11.7449 10.874
1 18.3258 12.5543 10.0708
1 17.508 11.7529 10.0857
1 19.1238 12.5386 10.874
1 19.9175 11.7449 10.874
1 19.9225 12.5599 10.03
1 19.1342 11.7623 10.0785
1 20.7112 12.5386 10.874
1 21.5049 11.7449 10.874
1 21.4829 12.5514 10.0837
1 20.7204 11.7402 10.0656
1 22.2986 12.5386 10.874
1 23.0923 11.7449 10.874
1 23.0896 12.5444 10.0958
1 22.2976 11.7789 10.0703
1 23.886 12.5386 10.874
1 24.6797 11.7449 10.874
1 24.6757 12.5333 10.1035
1 23.8805 11.7419 10.0992
1 25.4734 12.5386 10.874
1 26.2671 11.7449 10.874
1 26.2668 12.5581 10.0624
1 25.4928 11.7672 10.1071
1 27.0608 12.5386 10.874
1 27.8545 11.7449 10.874
1 27.8485 12.5372 10.081
1 27.0437 11.7371 10.1003
1 28.6482 12.5386 10.874
1 29.4419 11.7449 10.874
1 29.3561 12.5596 10.0608
1 28.6238 11.7538 10.0862
1 0.075 10.9512 10.874
1 0.868701 10.1575 10.874
1 0.879375 10.9391 10.071
1 0.140325 10.171 10.0418
1 1.6624 10.9512 10.874
1 2.4561 10.1575 10.874
1 2.48551 10.9354 10.1133
1 1.6551 10.1631 10.073
1 3.2498 10.9512 10.874
1 4.0435 10.1575 10.874
1 4.05807 10.9374 10.0747
1 3.25147 10.1468 10.0893
1 4.8372 10.9512 10.874
1 5.6309 10.1575 10.874
1 5.63867 11.0064 10.0825
1 4.84704 10.1722 10.0809
1 6.4246 10.9512 10.874
1 7.2183 10.1575 10.874
1 7.23669 10.9647 10.0777
1 6.43229 10.1694 10.0709
1 8.01201 10.9512 10.874
1 8.80571 10.1575 10.874
1 8.81293 10.9556 10.0949
1 7.99339 10.1569 10.0962
1 9.59941 10.9512 10.874
1 10.3931 10.1575 10.874
1 10.3854 10.9734 10.0732
1 9.59206 10.1539 10.0935
1 11.1868 10.9512 10.874
1 11.9805 10.1575 10.874
1 11.9848 10.9601 10.0604
1 11.1997 10.1633 10.0829
1 12.7742 10.9512 10.874
1 13.5679 10.1575 10.874
1 13.5748 10.9629 10.075
1 12.7523 10.1649 10.0585
1 14.3616 10.9512 10.874
1 15.1553 10.1575 10.874
1 15.1505 10.9437 10.0787
1 14.3551 10.1972 10.0766
1 15.949 10.9512 10.874
1 16.7427 10.1575 10.874
1 16.7295 10.9385 10.0591
1 15.9472 10.1533 10.0898
1 17.5364 10.9512 10.874
1 18.3301 10.1575 10.874
1 18.3342 10.9525 10.0688
1 17.5317 10.1556 10.0471
1 19.1238 10.9512 10.874
1 19.9175 10.1575 10.874
1 19.9296 10.9608 10.0812
1 19.1297 10.1727 10.0689
1 20.7112 10.9512 10.874
1 21.5049 10.1575 10.874
1 21.5138 10.9611 10.0712
1 20.709 10.1436 10.0701
1 22.2986 10.9512 10.874
1 23.0923 10.1575 10.874
1 23.0862 10.9369 10.0559
1 22.277 10.1722 10.0761
1 23.886 10.9512 10.874
1 24.6797 10.1575 10.874
1 24.6673 10.9772 10.0526
1 23.9015 10.1806 10.0868
1 25.4734 10.9512 10.874
1 26.2671 10.1575 10.874
1 26.2626 10.9527 10.0709
1 25.4669 10.1711 10.07
1 27.0608 10.9512 10.874
1 27.8545 10.1575 10.874
1 27.8548 10.9669 10.06
1 27.0386 10.1765 10.0691
1 28.6482 10.9512 10.874
1 29.4419 10.1575 10.874
1 29.3665 10.9283 10.033
1 28.6214 10.1495 10.0798
1 0.075 9.36379 10.874
1 0.868701 8.57009 10.874
1 0.880319 9.37053 10.0657
1 0.127423 8.5737 10.0673
1 1.6624 9.36379 10.874
1 2.4561 8.57009 10.874
1 2.47846 9.37416 10.0757
1 1.6854 8.56499 10.0942
1 3.2498 9.36379 10.874
1 4.0435 8.57009 10.874
1 4.05337 9.34592 10.0778
1 3.24603 8.58518 10.0639
1 4.8372 9.36379 10.874
1 5.6309 8.57009 10.874
1 5.61306 9.36274 10.122
1 4.85335 8.55771 10.0842
1 6.4246 9.36379 10.874
1 7.2183 8.57009 10.874
1 7.21626 9.37274 10.0692
1 6.43568 8.56094 10.0785
1 8.01201 9.36379 10.874
1 8.80571 8.57009 10.874
1 8.8085 9.3422 10.0978
1 8.01363 8.53263 10.0726
1 9.59941 9.36379 10.874
1 10.3931 8.57009 10.874
1 10.3839 9.36775 10.0963
1 9.58561 8.56427 10.0928
1 11.1868 9.36379 10.874
1 11.9805 8.57009 10.874
1 11.9953 9.36077 10.0837
1 11.1692 8.5826 10.0928
1 12.7742 9.36379 10.874
1 13.5679 8.57009 10.874
1 13.5798 9.36684 10.0852
1 12.7832 8.57699 10.0938
1 14.3616 9.36379 10.874
1 15.1553 8.57009 10.874
1 15.1361 9.3622 10.0944
1 14.3321 8.55411 10.0939
1 15.949 9.36379 10.874
1 16.7427 8.57009 10.874
1 16.7239 9.37039 10.0929
1 15.9577 8.60159 10.0919
1 17.5364 9.36379 10.874
1 18.3301 8.57009 10.874
1 18.3234 9.367 10.0942
1 17.5361 8.57358 10.0818
1 19.1238 9.36379 10.874
1 19.9175 8.57009 10.874
1 19.9107 9.36316 10.0798
1 19.1182 8.58948 10.0753
1 20.7112 9.36379 10.874
1 21.5049 8.57009 10.874
1 21.5187 9.3688 10.0668
1 20.7235 8.57073 10.0594
1 22.2986 9.36379 10.874
1 23.0923 8.57009 10.874
1 23.0922 9.35033 10.1053
1 22.3015 8.55891 10.0809
1 23.886 9.36379 10.874
1 24.6797 8.57009 10.874
1 24.6793 9.36254 10.0828
1 23.8739 8.56997 10.0637
1 25.4734 9.36379 10.874
1 26.2671 8.57009 10.874
1 26.2653 9.38601 10.0999
1 25.4602 8.57888 10.0896
1 27.0608 9.36379 10.874
1 27.8545 8.57009 10.874
1 27.8295 9.36207 10.0858
1 27.045 8.56942 10.08
1 28.6482 9.36379 10.874
1 29.4419 8.57009 10.874
1 29.3588 9.38284 10.0787
1 28.6064 8.5726 10.0808
1 0.075 7.77639 10.874
1 0.868701 6.98268 10.874
1 0.897878 7.77168 10.099
1 0.119118 6.99498 10.0564
1 1.6624 7.77639 10.874
1 2.4561 6.98268 10.874
1 2.47413 7.77005 10.0956
1 1.66003 6.99567 10.0738
1 3.2498 7.77639 10.874
1 4.0435 6.98268 10.874
1 4.03678 7.79025 10.0834
1 3.26228 6.99179 10.0893
1 4.8372 7.77639 10.874
1 5.6309 6.98268 10.874
1 5.62536 7.75517 10.0607
1 4.83786 6.98679 10.0807
1 6.4246 7.77639 10.874
1 7.2183 6.98268 10.874
1 7.23203 7.766 10.1001
1 6.41697 6.95988 10.0982
1 8.01201 7.77639 10.874
1 8.80571 6.98268 10.874
1 8.79356 7.78996 10.0614
1 8.02931 6.99181 10.0754
1 9.59941 7.77639 10.874
1 10.3931 6.98268 10.874
1 10.3943 7.77536 10.0988
1 9.61031 6.99181 10.0875
1 11.1868 7.77639 10.874
1 11.9805 6.98268 10.874
1 12.0137 7.78899 10.0843
1 11.2058 6.99819 10.0726
1 12.7742 7.77639 10.874
1 13.5679 6.98268 10.874
1 13.5908 7.7999 10.0511
1 12.8188 7.01032 10.0887
1 14.3616 7.77639 10.874
1 15.1553 6.98268 10.874
1 15.1714 7.78966 10.0872
1 14.3588 7.00141 10.0857
1 15.949 7.77639 10.874
1 16.7427 6.98268 10.874
1 16.7516 7.79507 10.0923
1 15.9593 6.99891 10.0839
1 17.5364 7.77639 10.874
1 18.3301 6.98268 10.874
1 18.3034 7.78138 10.0521
1 17.5348 6.99369 10.111
1 19.1238 7.77639 10.874
1 19.9175 6.98268 10.874
1 19.9107 7.80809 10.0794
1 19.1477 6.99335 10.0781
1 20.7112 7.77639 10.874
1 21.5049 6.98268 10.874
1 21.4999 7.78827 10.0904
1 20.7255 6.99859 10.0827
1 22.2986 7.77639 10.874
1 23.0923 6.98268 10.874
1 23.0862 7.76329 10.0554
1 22.3181 6.95662 10.06
1 23.886 7.77639 10.874
1 24.6797 6.98268 10.874
1 24.6481 7.79893 10.0887
1 23.878 6.98476 10.0916
1 25.4734 7.77639 10.874
1 26.2671 6.98268 10.874
1 26.2546 7.77089 10.0789
1 25.4596 6.99799 10.0786
1 27.0608 7.77639 10.874
1 27.8545 6.98268 10.874
1 27.8319 7.77567 10.0708
1 27.0387 6.98133 10.1024
1 28.6482 7.77639 10.874
1 29.4419 6.98268 10.874
1 29.3652 7.79252 10.0518
1 28.5782 6.98832 10.1021
1 0.075 6.18898 10.874
1 0.868701 5.39528 10.874
1 0.891542 6.19903 10.0946
1 0.153073 5.41655 10.0513
1 1.6624 6.18898 10.874
1 2.4561 5.39528 10.874
1 2.46545 6.18877 10.0875
1 1.68131 5.40042 10.111
1 3.2498 6.18898 10.874
1 4.0435 5.39528 10.874
1 4.047 6.18498 10.0871
1 3.26039 5.40408 10.1005
1 4.8372 6.18898 10.874
1 5.6309 5.39528 10.874
1 5.60951 6.17595 10.0774
1 4.82909 5.41111 10.062
1 6.4246 6.18898 10.874
1 7.2183 5.39528 10.874
1 7.21644 6.20681 10.0592
1 6.42935 5.41481 10.09
1 8.01201 6.18898 10.874
1 8.80571 5.39528 10.874
1 8.79309 6.21292 10.0818
1 8.01265 5.42314 10.0941
1 9.59941 6.18898 10.874
1 10.3931 5.39528 10.874
1 10.4168 6.19984 10.0854
1 9.60126 5.4104 10.0661
1 11.1868 6.18898 10.874
1 11.9805 5.39528 10.874
1 11.9578 6.20507 10.0883
1 11.2002 5.39916 10.0785
1 12.7742 6.18898 10.874
1 13.5679 5.39528 10.874
1 13.5786 6.2111 10.0795
1 12.7966 5.38966 10.068
1 14.3616 6.18898 10.874
1 15.1553 5.39528 10.874
1 15.1449 6.20587 10.0733
1 14.3398 5.39725 10.0925
1 15.949 6.18898 10.874
1 16.7427 5.39528 10.874
1 16.7515 6.20117 10.0822
1 15.9398 5.41749 10.0815
1 17.5364 6.18898 10.874
1 18.3301 5.39528 10.874
1 18.3395 6.18867 10.0859