9376
Atoms. Timestep: 4000000
1 30 3.55271e-15 10.6817
1 0.793701 29.2063 10.6817
1 0.80534 29.9492 9.83672
1 0.0620426 29.2093 9.83745
1 1.5874 3.55271e-15 10.6817
1 2.3811 29.2063 10.6817
1 2.41654 29.9237 9.88499
1 1.58962 29.2275 9.88944
1 3.1748 3.55271e-15 10.6817
1 3.9685 29.2063 10.6817
1 3.9858 29.9102 9.84838
1 3.1828 29.1506 9.89819
1 4.7622 3.55271e-15 10.6817
1 5.5559 29.2063 10.6817
1 5.53456 29.9333 9.8643
1 4.78409 29.1785 9.89343
1 6.3496 3.55271e-15 10.6817
1 7.1433 29.2063 10.6817
1 7.14944 29.9448 9.88434
1 6.37212 29.1852 9.90271
1 7.93701 3.55271e-15 10.6817
1 8.73071 29.2063 10.6817
1 8.71443 29.9344 9.85298
1 7.92256 29.1616 9.90214
1 9.52441 3.55271e-15 10.6817
1 10.3181 29.2063 10.6817
1 10.3345 29.903 9.86084
1 9.51643 29.1772 9.88936
1 11.1118 3.55271e-15 10.6817
1 11.9055 29.2063 10.6817
1 11.9042 29.9566 9.84868
1 11.1322 29.1981 9.86405
1 12.6992 3.55271e-15 10.6817
1 13.4929 29.2063 10.6817
1 13.4799 29.9025 9.85237
1 12.6898 29.2046 9.88035
1 14.2866 3.55271e-15 10.6817
1 15.0803 29.2063 10.6817
1 15.1021 29.927 9.85495
1 14.2764 29.1827 9.88979
1 15.874 3.55271e-15 10.6817
1 16.6677 29.2063 10.6817
1 16.6896 29.9059 9.83758
1 15.874 29.1665 9.88967
1 17.4614 3.55271e-15 10.6817
1 18.2551 29.2063 10.6817
1 18.233 29.9074 9.8543
1 17.4697 29.1472 9.89788
1 19.0488 3.55271e-15 10.6817
1 19.8425 29.2063 10.6817
1 19.8553 29.9365 9.85803
1 19.0325 29.165 9.87987
1 20.6362 3.55271e-15 10.6817
1 21.4299 29.2063 10.6817
1 21.4288 29.9479 9.83257
1 20.6425 29.1619 9.88644
1 22.2236 3.55271e-15 10.6817
1 23.0173 29.2063 10.6817
1 23.0286 29.8932 9.87969
1 22.2243 29.1533 9.8724
1 23.811 3.55271e-15 10.6817
1 24.6047 29.2063 10.6817
1 24.6125 29.9252 9.86249
1 23.8265 29.1746 9.87336
1 25.3984 3.55271e-15 10.6817
1 26.1921 29.2063 10.6817
1 26.1696 29.9421 9.8597
1 25.3916 29.173 9.87677
1 26.9858 3.55271e-15 10.6817
1 27.7795 29.2063 10.6817
1 27.7676 29.9044 9.82784
1 26.9463 29.1689 9.88826
1 28.5732 3.55271e-15 10.6817
1 29.3669 29.2063 10.6817
1 29.3061 29.9551 9.8148
1 28.5546 29.1682 9.86496
1 30 28.4126 10.6817
1 0.793701 27.6189 10.6817
1 0.816687 28.4197 9.87635
1 0.0709054 27.6003 9.83448
1 1.5874 28.4126 10.6817
1 2.3811 27.6189 10.6817
1 2.40138 28.3968 9.88991
1 1.58832 27.6091 9.88701
1 3.1748 28.4126 10.6817
1 3.9685 27.6189 10.6817
1 3.97186 28.3753 9.8838
1 3.1816 27.6116 9.89168
1 4.7622 28.4126 10.6817
1 5.5559 27.6189 10.6817
1 5.56316 28.3939 9.91056
1 4.75847 27.5893 9.88758
1 6.3496 28.4126 10.6817
1 7.1433 27.6189 10.6817
1 7.12227 28.3898 9.88607
1 6.35318 27.6144 9.85722
1 7.93701 28.4126 10.6817
1 8.73071 27.6189 10.6817
1 8.6995 28.4043 9.89423
1 7.94228 27.5988 9.90602
1 9.52441 28.4126 10.6817
1 10.3181 27.6189 10.6817
1 10.3339 28.4154 9.87613
1 9.53515 27.5897 9.88155
1 11.1118 28.4126 10.6817
1 11.9055 27.6189 10.6817
1 11.8991 28.3761 9.8906
1 11.103 27.6003 9.87608
1 12.6992 28.4126 10.6817
1 13.4929 27.6189 10.6817
1 13.4768 28.4255 9.875
1 12.6974 27.5769 9.90977
1 14.2866 28.4126 10.6817
1 15.0803 27.6189 10.6817
1 15.0691 28.393 9.91772
1 14.2909 27.6046 9.88104
1 15.874 28.4126 10.6817
1 16.6677 27.6189 10.6817
1 16.6603 28.3933 9.90626
1 15.873 27.6199 9.90334
1 17.4614 28.4126 10.6817
1 18.2551 27.6189 10.6817
1 18.2523 28.3823 9.87209
1 17.4601 27.5867 9.87535
1 19.0488 28.4126 10.6817
1 19.8425 27.6189 10.6817
1 19.816 28.4018 9.87315
1 19.0437 27.5883 9.86404
1 20.6362 28.4126 10.6817
1 21.4299 27.6189 10.6817
1 21.4232 28.3715 9.87487
1 20.6286 27.5762 9.88051
1 22.2236 28.4126 10.6817
1 23.0173 27.6189 10.6817
1 23.0374 28.3962 9.88055
1 22.2336 27.6076 9.87939
1 23.811 28.4126 10.6817
1 24.6047 27.6189 10.6817
1 24.6338 28.4006 9.90698
1 23.8086 27.6019 9.89923
1 25.3984 28.4126 10.6817
1 26.1921 27.6189 10.6817
1 26.1919 28.3933 9.90142
1 25.4063 27.6031 9.88408
1 26.9858 28.4126 10.6817
1 27.7795 27.6189 10.6817
1 27.7662 28.4042 9.88936
1 26.9788 27.624 9.88203
1 28.5732 28.4126 10.6817
1 29.3669 27.6189 10.6817
1 29.3011 28.4125 9.84146
1 28.5248 27.6351 9.89346
1 30 26.8252 10.6817
1 0.793701 26.0315 10.6817
1 0.824898 26.8346 9.88722
1 0.0507388 26.044 9.83527
1 1.5874 26.8252 10.6817
1 2.3811 26.0315 10.6817
1 2.3806 26.8367 9.87389
1 1.61063 26.0408 9.87419
1 3.1748 26.8252 10.6817
1 3.9685 26.0315 10.6817
1 3.96999 26.8175 9.88349
1 3.1591 26.0591 9.87386
1 4.7622 26.8252 10.6817
1 5.5559 26.0315 10.6817
1 5.56788 26.8227 9.88501
1 4.77131 26.0234 9.88806
1 6.3496 26.8252 10.6817
1 7.1433 26.0315 10.6817
1 7.12668 26.8208 9.89076
1 6.35668 26.0406 9.90213
1 7.93701 26.8252 10.6817
1 8.73071 26.0315 10.6817
1 8.74415 26.8267 9.89704
1 7.91966 26.0487 9.88603
1 9.52441 26.8252 10.6817
1 10.3181 26.0315 10.6817
1 10.3143 26.8078 9.90894
1 9.50294 26.0235 9.892
1 11.1118 26.8252 10.6817
1 11.9055 26.0315 10.6817
1 11.8938 26.8069 9.89561
1 11.1175 26.019 9.88719
1 12.6992 26.8252 10.6817
1 13.4929 26.0315 10.6817
1 13.4903 26.8114 9.91241
1 12.6838 25.999 9.89129
1 14.2866 26.8252 10.6817
1 15.0803 26.0315 10.6817
1 15.081 26.8234 9.87969
1 14.2686 26.0357 9.89051
1 15.874 26.8252 10.6817
1 16.6677 26.0315 10.6817
1 16.6742 26.8058 9.88485
1 15.8858 26.0281 9.89496
1 17.4614 26.8252 10.6817
1 18.2551 26.0315 10.6817
1 18.2701 26.8169 9.87488
1 17.4728 25.9984 9.8721
1 19.0488 26.8252 10.6817
1 19.8425 26.0315 10.6817
1 19.8219 26.8006 9.89902
1 19.0525 25.9916 9.8927
1 20.6362 26.8252 10.6817
1 21.4299 26.0315 10.6817
1 21.4436 26.8125 9.87571
1 20.6457 26.0186 9.8964
1 22.2236 26.8252 10.6817
1 23.0173 26.0315 10.6817
1 23.0249 26.8069 9.88976
1 22.2212 26.0159 9.89199
1 23.811 26.8252 10.6817
1 24.6047 26.0315 10.6817
1 24.6199 26.8351 9.86885
1 23.8272 26.039 9.84539
1 25.3984 26.8252 10.6817
1 26.1921 26.0315 10.6817
1 26.2104 26.7957 9.88537
1 25.3819 26.0407 9.8989
1 26.9858 26.8252 10.6817
1 27.7795 26.0315 10.6817
1 27.7839 26.7916 9.90074
1 26.9876 26.0144 9.89362
1 28.5732 26.8252 10.6817
1 29.3669 26.0315 10.6817
1 29.2863 26.8279 9.8525
1 28.5498 26.0311 9.88911
1 30 25.2378 10.6817
1 0.793701 24.4441 10.6817
1 0.800214 25.2498 9.89437
1 0.0803053 24.4161 9.87561
1 1.5874 25.2378 10.6817
1 2.3811 24.4441 10.6817
1 2.37178 25.2255 9.88407
1 1.59759 24.4345 9.86445
1 3.1748 25.2378 10.6817
1 3.9685 24.4441 10.6817
1 3.96007 25.2649 9.90992
1 3.17337 24.4478 9.88608
1 4.7622 25.2378 10.6817
1 5.5559 24.4441 10.6817
1 5.57867 25.2346 9.89226
1 4.75896 24.4404 9.88843
1 6.3496 25.2378 10.6817
1 7.1433 24.4441 10.6817
1 7.14567 25.247 9.88054
1 6.3567 24.4594 9.8855
1 7.93701 25.2378 10.6817
1 8.73071 24.4441 10.6817
1 8.6889 25.2518 9.90033
1 7.94019 24.4517 9.87838
1 9.52441 25.2378 10.6817
1 10.3181 24.4441 10.6817
1 10.317 25.2268 9.89683
1 9.49957 24.4337 9.9009
1 11.1118 25.2378 10.6817
1 11.9055 24.4441 10.6817
1 11.8833 25.2399 9.90754
1 11.1115 24.4304 9.878
1 12.6992 25.2378 10.6817
1 13.4929 24.4441 10.6817
1 13.5075 25.2351 9.8867
1 12.6975 24.4478 9.86709
1 14.2866 25.2378 10.6817
1 15.0803 24.4441 10.6817
1 15.06 25.2387 9.89587
1 14.2877 24.4389 9.87989
1 15.874 25.2378 10.6817
1 16.6677 24.4441 10.6817
1 16.673 25.2261 9.87747
1 15.8629 24.4455 9.90684
1 17.4614 25.2378 10.6817
1 18.2551 24.4441 10.6817
1 18.2425 25.2096 9.87065
1 17.472 24.4301 9.88668
1 19.0488 25.2378 10.6817
1 19.8425 24.4441 10.6817
1 19.8447 25.2298 9.88497
1 19.0533 24.4286 9.86951
1 20.6362 25.2378 10.6817
1 21.4299 24.4441 10.6817
1 21.4262 25.2266 9.90016
1 20.6444 24.4341 9.90248
1 22.2236 25.2378 10.6817
1 23.0173 24.4441 10.6817
1 23.0367 25.228 9.89413
1 22.2188 24.4313 9.87163
1 23.811 25.2378 10.6817
1 24.6047 24.4441 10.6817
1 24.6187 25.2292 9.88524
1 23.8252 24.4157 9.89441
1 25.3984 25.2378 10.6817
1 26.1921 24.4441 10.6817
1 26.1935 25.2534 9.91993
1 25.4061 24.4303 9.88096
1 26.9858 25.2378 10.6817
1 27.7795 24.4441 10.6817
1 27.779 25.2226 9.87125
1 26.957 24.458 9.90659
1 28.5732 25.2378 10.6817
1 29.3669 24.4441 10.6817
1 29.2936 25.2178 9.8387
1 28.5361 24.4256 9.88452
1 30 23.6504 10.6817
1 0.793701 22.8567 10.6817
1 0.836096 23.6475 9.88599
1 0.0552653 22.8487 9.85683
1 1.5874 23.6504 10.6817
1 2.3811 22.8567 10.6817
1 2.38486 23.6457 9.9098
1 1.60631 22.8698 9.90448
1 3.1748 23.6504 10.6817
1 3.9685 22.8567 10.6817
1 3.9659 23.6572 9.87295
1 3.17421 22.8535 9.91572
1 4.7622 23.6504 10.6817
1 5.5559 22.8567 10.6817
1 5.56293 23.6648 9.87982
1 4.76234 22.8448 9.89172
1 6.3496 23.6504 10.6817
1 7.1433 22.8567 10.6817
1 7.15063 23.6559 9.87062
1 6.35103 22.8509 9.9026
1 7.93701 23.6504 10.6817
1 8.73071 22.8567 10.6817
1 8.7125 23.6308 9.87229
1 7.95666 22.8361 9.89207
1 9.52441 23.6504 10.6817
1 10.3181 22.8567 10.6817
1 10.3067 23.6482 9.8817
1 9.52577 22.8226 9.90167
1 11.1118 23.6504 10.6817
1 11.9055 22.8567 10.6817
1 11.9043 23.6448 9.89263
1 11.0965 22.8739 9.89205
1 12.6992 23.6504 10.6817
1 13.4929 22.8567 10.6817
1 13.4907 23.6517 9.87359
1 12.7216 22.8566 9.87671
1 14.2866 23.6504 10.6817
1 15.0803 22.8567 10.6817
1 15.0787 23.6777 9.8886
1 14.3177 22.8484 9.90361
1 15.874 23.6504 10.6817
1 16.6677 22.8567 10.6817
1 16.6703 23.6525 9.8892
1 15.8622 22.871 9.90505
1 17.4614 23.6504 10.6817
1 18.2551 22.8567 10.6817
1 18.2735 23.6478 9.89826
1 17.4662 22.8705 9.89738
1 19.0488 23.6504 10.6817
1 19.8425 22.8567 10.6817
1 19.86 23.6447 9.89783
1 19.0451 22.8588 9.88508
1 20.6362 23.6504 10.6817
1 21.4299 22.8567 10.6817
1 21.4197 23.6234 9.88275
1 20.6381 22.8436 9.89779
1 22.2236 23.6504 10.6817
1 23.0173 22.8567 10.6817
1 23.0211 23.6791 9.87538
1 22.2072 22.8753 9.88272
1 23.811 23.6504 10.6817
1 24.6047 22.8567 10.6817
1 24.6162 23.6229 9.87669
1 23.8047 22.8271 9.88407
1 25.3984 23.6504 10.6817
1 26.1921 22.8567 10.6817
1 26.1968 23.6596 9.88806
1 25.4029 22.8518 9.89169
1 26.9858 23.6504 10.6817
1 27.7795 22.8567 10.6817
1 27.743 23.655 9.88147
1 26.9735 22.8376 9.89289
1 28.5732 23.6504 10.6817
1 29.3669 22.8567 10.6817
1 29.3036 23.6406 9.86871
1 28.517 22.8729 9.86694
1 30 22.063 10.6817
1 0.793701 21.2693 10.6817
1 0.802675 22.0553 9.89007
1 0.0446788 21.2847 9.87534
1 1.5874 22.063 10.6817
1 2.3811 21.2693 10.6817
1 2.39418 22.074 9.90544
1 1.61024 21.2887 9.89471
1 3.1748 22.063 10.6817
1 3.9685 21.2693 10.6817
1 3.98989 22.0614 9.89504
1 3.13403 21.2824 9.87678
1 4.7622 22.063 10.6817
1 5.5559 21.2693 10.6817
1 5.55104 22.0488 9.89433
1 4.74984 21.2576 9.88179
1 6.3496 22.063 10.6817
1 7.1433 21.2693 10.6817
1 7.14785 22.0533 9.89565
1 6.35353 21.2418 9.89889
1 7.93701 22.063 10.6817
1 8.73071 21.2693 10.6817
1 8.70542 22.0585 9.90131
1 7.93965 21.2453 9.8649
1 9.52441 22.063 10.6817
1 10.3181 21.2693 10.6817
1 10.3079 22.0481 9.89261
1 9.4955 21.2651 9.86499
1 11.1118 22.063 10.6817
1 11.9055 21.2693 10.6817
1 11.8945 22.0509 9.88289
1 11.1087 21.2796 9.89042
1 12.6992 22.063 10.6817
1 13.4929 21.2693 10.6817
1 13.5178 22.0624 9.89537
1 12.6927 21.2533 9.90583
1 14.2866 22.063 10.6817
1 15.0803 21.2693 10.6817
1 15.0934 22.0592 9.88845
1 14.2916 21.2849 9.90481
1 15.874 22.063 10.6817
1 16.6677 21.2693 10.6817
1 16.6698 22.0508 9.89006
1 15.8697 21.2565 9.90249
1 17.4614 22.063 10.6817
1 18.2551 21.2693 10.6817
1 18.25 22.0626 9.88344
1 17.4266 21.2647 9.88838
1 19.0488 22.063 10.6817
1 19.8425 21.2693 10.6817
1 19.8451 22.053 9.87862
1 19.0279 21.2375 9.9332
1 20.6362 22.063 10.6817
1 21.4299 21.2693 10.6817
1 21.4275 22.0887 9.87654
1 20.6509 21.2651 9.89231
1 22.2236 22.063 10.6817
1 23.0173 21.2693 10.6817
1 23.0171 22.0741 9.88837
1 22.214 21.2474 9.895
1 23.811 22.063 10.6817
1 24.6047 21.2693 10.6817
1 24.6035 22.0695 9.88788
1 23.8275 21.2719 9.89438
1 25.3984 22.063 10.6817
1 26.1921 21.2693 10.6817
1 26.1917 22.0484 9.87799
1 25.3983 21.2907 9.87818
1 26.9858 22.063 10.6817
1 27.7795 21.2693 10.6817
1 27.7572 22.0554 9.87157
1 26.9667 21.2674 9.87301
1 28.5732 22.063 10.6817
1 29.3669 21.2693 10.6817
1 29.2839 22.0879 9.86849
1 28.5495 21.2711 9.86262
1 30 20.4756 10.6817
1 0.793701 19.6819 10.6817
1 0.806729 20.4883 9.8842
1 0.0441417 19.6864 9.84916
1 1.5874 20.4756 10.6817
1 2.3811 19.6819 10.6817
1 2.4057 20.4629 9.88817
1 1.56816 19.6818 9.87622
1 3.1748 20.4756 10.6817
1 3.9685 19.6819 10.6817
1 3.98604 20.4749 9.89209
1 3.16931 19.664 9.89423
1 4.7622 20.4756 10.6817
1 5.5559 19.6819 10.6817
1 5.56221 20.4632 9.89432
1 4.78761 19.6628 9.87491
1 6.3496 20.4756 10.6817
1 7.1433 19.6819 10.6817
1 7.15507 20.4913 9.87984
1 6.38657 19.6922 9.88168
1 7.93701 20.4756 10.6817
1 8.73071 19.6819 10.6817
1 8.74521 20.4938 9.891
1 7.94646 19.6817 9.89153
1 9.52441 20.4756 10.6817
1 10.3181 19.6819 10.6817
1 10.309 20.4893 9.88727
1 9.56468 19.6605 9.88942
1 11.1118 20.4756 10.6817
1 11.9055 19.6819 10.6817
1 11.9064 20.4804 9.89288
1 11.1097 19.6927 9.87058
1 12.6992 20.4756 10.6817
1 13.4929 19.6819 10.6817
1 13.4806 20.4803 9.89822
1 12.6887 19.6765 9.88188
1 14.2866 20.4756 10.6817
1 15.0803 19.6819 10.6817
1 15.0946 20.4813 9.87806
1 14.2962 19.698 9.88856
1 15.874 20.4756 10.6817
1 16.6677 19.6819 10.6817
1 16.6551 20.4715 9.88645
1 15.8734 19.6741 9.86424
1 17.4614 20.4756 10.6817
1 18.2551 19.6819 10.6817
1 18.2381 20.4509 9.90278
1 17.4488 19.6934 9.88589
1 19.0488 20.4756 10.6817
1 19.8425 19.6819 10.6817
1 19.8165 20.4922 9.90859
1 19.0056 19.6729 9.89812
1 20.6362 20.4756 10.6817
1 21.4299 19.6819 10.6817
1 21.4147 20.4573 9.87714
1 20.6441 19.7054 9.88842
1 22.2236 20.4756 10.6817
1 23.0173 19.6819 10.6817
1 23.0453 20.4761 9.88703
1 22.2078 19.6623 9.89344
1 23.811 20.4756 10.6817
1 24.6047 19.6819 10.6817
1 24.599 20.5254 9.89682
1 23.8152 19.7026 9.88514
1 25.3984 20.4756 10.6817
1 26.1921 19.6819 10.6817
1 26.1829 20.4845 9.88541
1 25.3767 19.7173 9.89825
1 26.9858 20.4756 10.6817
1 27.7795 19.6819 10.6817
1 27.7599 20.4783 9.88802
1 26.9586 19.6873 9.88325
1 28.5732 20.4756 10.6817
1 29.3669 19.6819 10.6817
1 29.3082 20.484 9.82428
1 28.5292 19.7099 9.88418
1 30 18.8882 10.6817
1 0.793701 18.0945 10.6817
1 0.804204 18.8775 9.87948
1 0.0632529 18.0842 9.8706
1 1.5874 18.8882 10.6817
1 2.3811 18.0945 10.6817
1 2.38581 18.8835 9.87585
1 1.57911 18.1224 9.87739
1 3.1748 18.8882 10.6817
1 3.9685 18.0945 10.6817
1 3.99104 18.8829 9.898
1 3.17821 18.1168 9.87356
1 4.7622 18.8882 10.6817
1 5.5559 18.0945 10.6817
1 5.57617 18.8711 9.88185
1 4.78074 18.1085 9.91722
1 6.3496 18.8882 10.6817
1 7.1433 18.0945 10.6817
1 7.12659 18.9026 9.8896
1 6.35296 18.0812 9.88395
1 7.93701 18.8882 10.6817
1 8.73071 18.0945 10.6817
1 8.74139 18.897 9.8837
1 7.94479 18.1007 9.88032
1 9.52441 18.8882 10.6817
1 10.3181 18.0945 10.6817
1 10.3303 18.8784 9.86639
1 9.53862 18.0979 9.88288
1 11.1118 18.8882 10.6817
1 11.9055 18.0945 10.6817
1 11.9313 18.8977 9.86649
1 11.1369 18.0969 9.89391
1 12.6992 18.8882 10.6817
1 13.4929 18.0945 10.6817
1 13.4895 18.8895 9.88672
1 12.7012 18.0898 9.89779
1 14.2866 18.8882 10.6817
1 15.0803 18.0945 10.6817
1 15.0825 18.9142 9.88634
1 14.315 18.0939 9.87783
1 15.874 18.8882 10.6817
1 16.6677 18.0945 10.6817
1 16.6585 18.9143 9.89972
1 15.8768 18.0892 9.89353
1 17.4614 18.8882 10.6817
1 18.2551 18.0945 10.6817
1 18.2323 18.888 9.87734
1 17.4301 18.1172 9.90037
1 19.0488 18.8882 10.6817
1 19.8425 18.0945 10.6817
1 19.8542 18.9243 9.89645
1 19.0254 18.1092 9.89741
1 20.6362 18.8882 10.6817
1 21.4299 18.0945 10.6817
1 21.4247 18.8812 9.89585
1 20.6208 18.0819 9.88254
1 22.2236 18.8882 10.6817
1 23.0173 18.0945 10.6817
1 23.0339 18.8865 9.896
1 22.2326 18.0909 9.90256
1 23.811 18.8882 10.6817
1 24.6047 18.0945 10.6817
1 24.5897 18.8781 9.88558
1 23.8341 18.0696 9.89793
1 25.3984 18.8882 10.6817
1 26.1921 18.0945 10.6817
1 26.1747 18.922 9.86665
1 25.3947 18.0941 9.86459
1 26.9858 18.8882 10.6817
1 27.7795 18.0945 10.6817
1 27.7636 18.8843 9.88794
1 26.9603 18.1114 9.90163
1 28.5732 18.8882 10.6817
1 29.3669 18.0945 10.6817
1 29.2956 18.8803 9.86167
1 28.5463 18.0852 9.88139
1 30 17.3008 10.6817
1 0.793701 16.5071 10.6817
1 0.827744 17.3207 9.90667
1 0.0722757 16.5139 9.86535
1 1.5874 17.3008 10.6817
1 2.3811 16.5071 10.6817
1 2.38496 17.3177 9.89397
1 1.62291 16.4957 9.87751
1 3.1748 17.3008 10.6817
1 3.9685 16.5071 10.6817
1 3.97899 17.3156 9.88548
1 3.17418 16.498 9.89754
1 4.7622 17.3008 10.6817
1 5.5559 16.5071 10.6817
1 5.55031 17.3383 9.89673
1 4.759 16.516 9.89752
1 6.3496 17.3008 10.6817
1 7.1433 16.5071 10.6817
1 7.13537 17.327 9.89962
1 6.34782 16.4979 9.90945
1 7.93701 17.3008 10.6817
1 8.73071 16.5071 10.6817
1 8.7143 17.3175 9.90869
1 7.93098 16.491 9.88046
1 9.52441 17.3008 10.6817
1 10.3181 16.5071 10.6817
1 10.3084 17.3182 9.89215
1 9.52095 16.5282 9.87593
1 11.1118 17.3008 10.6817
1 11.9055 16.5071 10.6817
1 11.9177 17.316 9.87414
1 11.0914 16.5381 9.90299
1 12.6992 17.3008 10.6817
1 13.4929 16.5071 10.6817
1 13.5137 17.2929 9.87335
1 12.7275 16.5189 9.87299
1 14.2866 17.3008 10.6817
1 15.0803 16.5071 10.6817
1 15.0868 17.3427 9.88342
1 14.281 16.5063 9.91203
1 15.874 17.3008 10.6817
1 16.6677 16.5071 10.6817
1 16.6635 17.2876 9.89918
1 15.8697 16.4852 9.89962
1 17.4614 17.3008 10.6817
1 18.2551 16.5071 10.6817
1 18.2494 17.3133 9.89373
1 17.4517 16.4858 9.87336
1 19.0488 17.3008 10.6817
1 19.8425 16.5071 10.6817
1 19.8444 17.2981 9.88402
1 19.0567 16.4841 9.87516
1 20.6362 17.3008 10.6817
1 21.4299 16.5071 10.6817
1 21.4402 17.2895 9.90294
1 20.6443 16.4931 9.88085
1 22.2236 17.3008 10.6817
1 23.0173 16.5071 10.6817
1 23.0331 17.2839 9.89318
1 22.2356 16.4908 9.91083
1 23.811 17.3008 10.6817
1 24.6047 16.5071 10.6817
1 24.6135 17.3046 9.85878
1 23.8138 16.49 9.88519
1 25.3984 17.3008 10.6817
1 26.1921 16.5071 10.6817
1 26.1835 17.2891 9.88654
1 25.4103 16.4962 9.86989
1 26.9858 17.3008 10.6817
1 27.7795 16.5071 10.6817
1 27.7531 17.2601 9.88948
1 26.9501 16.5092 9.88093
1 28.5732 17.3008 10.6817
1 29.3669 16.5071 10.6817
1 29.3084 17.2864 9.84624
1 28.5153 16.5112 9.89944
1 30 15.7134 10.6817
1 0.793701 14.9197 10.6817
1 0.838495 15.728 9.8697
1 0.0640365 14.9203 9.87246
1 1.5874 15.7134 10.6817
1 2.3811 14.9197 10.6817
1 2.39319 15.7321 9.88331
1 1.61068 14.9421 9.90011
1 3.1748 15.7134 10.6817
1 3.9685 14.9197 10.6817
1 3.9738 15.7131 9.89351
1 3.17559 14.9511 9.90661
1 4.7622 15.7134 10.6817
1 5.5559 14.9197 10.6817
1 5.57331 15.7281 9.8956
1 4.78927 14.9255 9.8922
1 6.3496 15.7134 10.6817
1 7.1433 14.9197 10.6817
1 7.14256 15.6947 9.86671
1 6.34425 14.925 9.87822
1 7.93701 15.7134 10.6817
1 8.73071 14.9197 10.6817
1 8.73413 15.706 9.87244
1 7.91322 14.8904 9.88696
1 9.52441 15.7134 10.6817
1 10.3181 14.9197 10.6817
1 10.3281 15.7174 9.87779
1 9.52911 14.9112 9.8969
1 11.1118 15.7134 10.6817
1 11.9055 14.9197 10.6817
1 11.9096 15.7335 9.88622
1 11.0998 14.9326 9.91036
1 12.6992 15.7134 10.6817
1 13.4929 14.9197 10.6817
1 13.4942 15.7255 9.89978
1 12.7096 14.9392 9.90807
1 14.2866 15.7134 10.6817
1 15.0803 14.9197 10.6817
1 15.093 15.6936 9.90157
1 14.2892 14.9004 9.89345
1 15.874 15.7134 10.6817
1 16.6677 14.9197 10.6817
1 16.6756 15.7052 9.8854
1 15.8824 14.9239 9.87711
1 17.4614 15.7134 10.6817
1 18.2551 14.9197 10.6817
1 18.2729 15.7083 9.87742
1 17.4445 14.9218 9.89159
1 19.0488 15.7134 10.6817
1 19.8425 14.9197 10.6817
1 19.8534 15.6946 9.88642
1 19.0225 14.9098 9.90475
1 20.6362 15.7134 10.6817
1 21.4299 14.9197 10.6817
1 21.4138 15.7089 9.87335
1 20.6261 14.905 9.8807
1 22.2236 15.7134 10.6817
1 23.0173 14.9197 10.6817
1 22.999 15.7255 9.90604
1 22.1866 14.9436 9.88241
1 23.811 15.7134 10.6817
1 24.6047 14.9197 10.6817
1 24.5992 15.7096 9.90302
1 23.8261 14.911 9.89525
1 25.3984 15.7134 10.6817
1 26.1921 14.9197 10.6817
1 26.1711 15.708 9.91003
1 25.3995 14.8996 9.89397
1 26.9858 15.7134 10.6817
1 27.7795 14.9197 10.6817
1 27.7545 15.6968 9.88157
1 26.97 14.9282 9.86566
1 28.5732 15.7134 10.6817
1 29.3669 14.9197 10.6817
1 29.2803 15.7136 9.85074
1 28.5641 14.9048 9.90769
1 30 14.126 10.6817
1 0.793701 13.3323 10.6817
1 0.820254 14.1191 9.87236
1 0.0449699 13.3395 9.85847
1 1.5874 14.126 10.6817
1 2.3811 13.3323 10.6817
1 2.38881 14.1139 9.87748
1 1.60823 13.331 9.87056
1 3.1748 14.126 10.6817
1 3.9685 13.3323 10.6817
1 3.97856 14.1224 9.86744
1 3.20039 13.3382 9.8976
1 4.7622 14.126 10.6817
1 5.5559 13.3323 10.6817
1 5.5572 14.1125 9.88088
1 4.77375 13.3657 9.90507
1 6.3496 14.126 10.6817
1 7.1433 13.3323 10.6817
1 7.14417 14.1158 9.89984
1 6.3601 13.3341 9.8863
1 7.93701 14.126 10.6817
1 8.73071 13.3323 10.6817
1 8.74494 14.1485 9.88751
1 7.93145 13.3419 9.86645
1 9.52441 14.126 10.6817
1 10.3181 13.3323 10.6817
1 10.3281 14.1284 9.90874
1 9.50727 13.3424 9.8866
1 11.1118 14.126 10.6817
1 11.9055 13.3323 10.6817
1 11.9201 14.1302 9.90617
1 11.1268 13.3399 9.88771
1 12.6992 14.126 10.6817
1 13.4929 13.3323 10.6817
1 13.5018 14.1348 9.89617
1 12.7223 13.3423 9.86523
1 14.2866 14.126 10.6817
1 15.0803 13.3323 10.6817
1 15.0778 14.1117 9.86303
1 14.2729 13.3217 9.89394
1 15.874 14.126 10.6817
1 16.6677 13.3323 10.6817
1 16.6617 14.1045 9.89364
1 15.8805 13.3221 9.88846
1 17.4614 14.126 10.6817
1 18.2551 13.3323 10.6817
1 18.2518 14.1482 9.92861
1 17.4744 13.339 9.89127
1 19.0488 14.126 10.6817
1 19.8425 13.3323 10.6817
1 19.8555 14.1461 9.90829
1 19.0352 13.3525 9.88143
1 20.6362 14.126 10.6817
1 21.4299 13.3323 10.6817
1 21.3978 14.1237 9.89878
1 20.6323 13.3177 9.89484
1 22.2236 14.126 10.6817
1 23.0173 13.3323 10.6817
1 23.023 14.1114 9.88242
1 22.2298 13.3545 9.91339
1 23.811 14.126 10.6817
1 24.6047 13.3323 10.6817
1 24.6053 14.1086 9.89978
1 23.8223 13.3375 9.88504
1 25.3984 14.126 10.6817
1 26.1921 13.3323 10.6817
1 26.2133 14.1147 9.89034
1 25.4063 13.3289 9.87538
1 26.9858 14.126 10.6817
1 27.7795 13.3323 10.6817
1 27.7718 14.1247 9.87544
1 26.9993 13.319 9.88395
1 28.5732 14.126 10.6817
1 29.3669 13.3323 10.6817
1 29.2711 14.1294 9.87839
1 28.5332 13.3072 9.86422
1 30 12.5386 10.6817
1 0.793701 11.7449 10.6817
1 0.82024 12.5365 9.88264
1 0.0510456 11.7509 9.86833
1 1.5874 12.5386 10.6817
1 2.3811 11.7449 10.6817
1 2.39889 12.5308 9.88443
1 1.60511 11.7246 9.9134
1 3.1748 12.5386 10.6817
1 3.9685 11.7449 10.6817
1 3.99225 12.5491 9.89064
1 3.19996 11.7265 9.89825
1 4.7622 12.5386 10.6817
1 5.5559 11.7449 10.6817
1 5.56018 12.5376 9.86987
1 4.78485 11.756 9.89102
1 6.3496 12.5386 10.6817
1 7.1433 11.7449 10.6817
1 7.14312 12.5312 9.8804
1 6.35596 11.7349 9.89057
1 7.93701 12.5386 10.6817
1 8.73071 11.7449 10.6817
1 8.72229 12.5538 9.89886
1 7.953 11.7541 9.87679
1 9.52441 12.5386 10.6817
1 10.3181 11.7449 10.6817
1 10.3019 12.5387 9.87412
1 9.49582 11.754 9.87701
1 11.1118 12.5386 10.6817
1 11.9055 11.7449 10.6817
1 11.9286 12.5156 9.89461
1 11.1108 11.7692 9.86798
1 12.6992 12.5386 10.6817
1 13.4929 11.7449 10.6817
1 13.5146 12.5156 9.89081
1 12.6686 11.7272 9.9092
1 14.2866 12.5386 10.6817
1 15.0803 11.7449 10.6817
1 15.0904 12.5759 9.87694
1 14.3147 11.7398 9.87606
1 15.874 12.5386 10.6817
1 16.6677 11.7449 10.6817
1 16.6737 12.5328 9.88035
1 15.8811 11.725 9.88754
1 17.4614 12.5386 10.6817
1 18.2551 11.7449 10.6817
1 18.2673 12.5286 9.8864
1 17.4495 11.7187 9.87561
1 19.0488 12.5386 10.6817
1 19.8425 11.7449 10.6817
1 19.8504 12.5616 9.88494
1 19.045 11.76 9.89076
1 20.6362 12.5386 10.6817
1 21.4299 11.7449 10.6817
1 21.4251 12.5459 9.8641
1 20.637 11.7226 9.89972
1 22.2236 12.5386 10.6817
1 23.0173 11.7449 10.6817
1 23.0335 12.5548 9.90703
1 22.2223 11.7561 9.91544
1 23.811 12.5386 10.6817
1 24.6047 11.7449 10.6817
1 24.5988 12.5426 9.89641
1 23.8511 11.7423 9.877
1 25.3984 12.5386 10.6817
1 26.1921 11.7449 10.6817
1 26.195 12.5359 9.90626
1 25.4038 11.7229 9.8935
1 26.9858 12.5386 10.6817
1 27.7795 11.7449 10.6817
1 27.762 12.5133 9.89644
1 26.9616 11.7439 9.88146
1 28.5732 12.5386 10.6817
1 29.3669 11.7449 10.6817
1 29.3043 12.5284 9.86044
1 28.5736 11.7427 9.8878
1 30 10.9512 10.6817
1 0.793701 10.1575 10.6817
1 0.809887 10.928 9.89956
1 0.0731134 10.1374 9.84603
1 1.5874 10.9512 10.6817
1 2.3811 10.1575 10.6817
1 2.39363 10.9348 9.88612
1 1.59224 10.1513 9.88495
1 3.1748 10.9512 10.6817
1 3.9685 10.1575 10.6817
1 4.01672 10.956 9.8912
1 3.16851 10.1667 9.91558
1 4.7622 10.9512 10.6817
1 5.5559 10.1575 10.6817
1 5.55403 10.937 9.897
1 4.76531 10.1576 9.87746
1 6.3496 10.9512 10.6817
1 7.1433 10.1575 10.6817
1 7.19322 10.9334 9.89089
1 6.3917 10.177 9.89037
1 7.93701 10.9512 10.6817
1 8.73071 10.1575 10.6817
1 8.72832 10.9651 9.91035
1 7.94977 10.13 9.89717
1 9.52441 10.9512 10.6817
1 10.3181 10.1575 10.6817
1 10.3011 10.9595 9.90696
1 9.54406 10.1434 9.86493
1 11.1118 10.9512 10.6817
1 11.9055 10.1575 10.6817
1 11.8943 10.9556 9.88055
1 11.1185 10.1371 9.90191
1 12.6992 10.9512 10.6817
1 13.4929 10.1575 10.6817
1 13.5012 10.9341 9.90307
1 12.7108 10.168 9.89785
1 14.2866 10.9512 10.6817
1 15.0803 10.1575 10.6817
1 15.0958 10.9321 9.89209
1 14.3094 10.1424 9.90829
1 15.874 10.9512 10.6817
1 16.6677 10.1575 10.6817
1 16.676 10.9253 9.89257
1 15.8811 10.1416 9.87188
1 17.4614 10.9512 10.6817
1 18.2551 10.1575 10.6817
1 18.2766 10.9291 9.89642
1 17.4682 10.1413 9.87979
1 19.0488 10.9512 10.6817
1 19.8425 10.1575 10.6817
1 19.8523 10.9622 9.89331
1 19.0687 10.1548 9.89377
1 20.6362 10.9512 10.6817
1 21.4299 10.1575 10.6817
1 21.4235 10.954 9.87867
1 20.6247 10.1796 9.90198
1 22.2236 10.9512 10.6817
1 23.0173 10.1575 10.6817
1 23.0247 10.9363 9.88985
1 22.2352 10.1454 9.90834
1 23.811 10.9512 10.6817
1 24.6047 10.1575 10.6817
1 24.6059 10.9593 9.88083
1 23.8017 10.1582 9.88189
1 25.3984 10.9512 10.6817
1 26.1921 10.1575 10.6817
1 26.1745 10.9505 9.88774
1 25.3872 10.1639 9.88569
1 26.9858 10.9512 10.6817
1 27.7795 10.1575 10.6817
1 27.7629 10.9494 9.88029
1 26.9523 10.1417 9.8832
1 28.5732 10.9512 10.6817
1 29.3669 10.1575 10.6817
1 29.3143 10.9504 9.87407
1 28.5378 10.1386 9.88471
1 30 9.36379 10.6817
1 0.793701 8.57009 10.6817
1 0.788981 9.36568 9.86053
1 0.0653435 8.57851 9.85462
1 1.5874 9.36379 10.6817
1 2.3811 8.57009 10.6817
1 2.38167 9.37171 9.86754
1 1.58706 8.60441 9.88279
1 3.1748 9.36379 10.6817
1 3.9685 8.57009 10.6817
1 3.95355 9.38572 9.89802
1 3.17295 8.5767 9.90091
1 4.7622 9.36379 10.6817
1 5.5559 8.57009 10.6817
1 5.55032 9.37035 9.87923
1 4.7625 8.56844 9.88585
1 6.3496 9.36379 10.6817
1 7.1433 8.57009 10.6817
1 7.15625 9.34965 9.86749
1 6.34929 8.58221 9.87073
1 7.93701 9.36379 10.6817
1 8.73071 8.57009 10.6817
1 8.75042 9.36168 9.90418
1 7.93372 8.57535 9.88068
1 9.52441 9.36379 10.6817
1 10.3181 8.57009 10.6817
1 10.3008 9.36515 9.88692
1 9.52478 8.57444 9.89456
1 11.1118 9.36379 10.6817
1 11.9055 8.57009 10.6817
1 11.9253 9.36582 9.90708
1 11.1149 8.57921 9.87963
1 12.6992 9.36379 10.6817
1 13.4929 8.57009 10.6817
1 13.4991 9.3539 9.89292
1 12.6867 8.54814 9.91649
1 14.2866 9.36379 10.6817
1 15.0803 8.57009 10.6817
1 15.0841 9.33426 9.87251
1 14.2747 8.5614 9.89718
1 15.874 9.36379 10.6817
1 16.6677 8.57009 10.6817
1 16.679 9.36008 9.86979
1 15.8691 8.55326 9.90703
1 17.4614 9.36379 10.6817
1 18.2551 8.57009 10.6817
1 18.2546 9.36886 9.89258
1 17.481 8.56073 9.85768
1 19.0488 9.36379 10.6817
1 19.8425 8.57009 10.6817
1 19.8571 9.35461 9.90202
1 19.0542 8.5954 9.8448
1 20.6362 9.36379 10.6817
1 21.4299 8.57009 10.6817
1 21.4317 9.35723 9.88924
1 20.6487 8.57443 9.89115
1 22.2236 9.36379 10.6817
1 23.0173 8.57009 10.6817
1 23.0263 9.3837 9.87486
1 22.2179 8.58504 9.8839
1 23.811 9.36379 10.6817
1 24.6047 8.57009 10.6817
1 24.5905 9.3671 9.89814
1 23.7932 8.56767 9.89007
1 25.3984 9.36379 10.6817
1 26.1921 8.57009 10.6817
1 26.1885 9.34663 9.87845
1 25.3944 8.60258 9.8927
1 26.9858 9.36379 10.6817
1 27.7795 8.57009 10.6817
1 27.7578 9.38371 9.87844
1 26.9838 8.57494 9.87278
1 28.5732 9.36379 10.6817
1 29.3669 8.57009 10.6817
1 29.2784 9.36112 9.85859
1 28.5227 8.55496 9.87912
1 30 7.77639 10.6817
1 0.793701 6.98268 10.6817
1 0.824806 7.77525 9.88736
1 0.0572094 6.97609 9.86143
1 1.5874 7.77639 10.6817
1 2.3811 6.98268 10.6817
1 2.3823 7.81848 9.89096
1 1.61162 6.98078 9.86639
1 3.1748 7.77639 10.6817
1 3.9685 6.98268 10.6817
1 3.98189 7.78307 9.90411
1 3.18188 6.97784 9.87356
1 4.7622 7.77639 10.6817
1 5.5559 6.98268 10.6817
1 5.54999 7.76027 9.87401
1 4.7489 6.98122 9.87024
1 6.3496 7.77639 10.6817
1 7.1433 6.98268 10.6817
1 7.1226 7.77876 9.90137
1 6.35907 6.98858 9.90673
1 7.93701 7.77639 10.6817
1 8.73071 6.98268 10.6817
1 8.74276 7.7905 9.87573
1 7.94373 6.97356 9.87449
1 9.52441 7.77639 10.6817
1 10.3181 6.98268 10.6817
1 10.321 7.79533 9.91892
1 9.49809 6.99338 9.90971
1 11.1118 7.77639 10.6817
1 11.9055 6.98268 10.6817
1 11.8996 7.78699 9.88031
1 11.1026 6.99815 9.90675
1 12.6992 7.77639 10.6817
1 13.4929 6.98268 10.6817
1 13.5091 7.7792 9.88123
1 12.7032 7.00277 9.88176
1 14.2866 7.77639 10.6817
1 15.0803 6.98268 10.6817
1 15.0461 7.78427 9.88041
1 14.2698 6.96992 9.89287
1 15.874 7.77639 10.6817
1 16.6677 6.98268 10.6817
1 16.64 7.76381 9.86694
1 15.8619 6.97688 9.84934
1 17.4614 7.77639 10.6817
1 18.2551 6.98268 10.6817
1 18.2993 7.79988 9.86989
1 17.4528 7.01689 9.88
1 19.0488 7.77639 10.6817
1 19.8425 6.98268 10.6817
1 19.8501 7.78099 9.90195
1 19.0449 7.02682 9.87756
1 20.6362 7.77639 10.6817
1 21.4299 6.98268 10.6817
1 21.4461 7.7885 9.88123
1 20.6528 7.02691 9.90966
1 22.2236 7.77639 10.6817
1 23.0173 6.98268 10.6817
1 22.9843 7.78286 9.87617
1 22.2029 6.9814 9.89114
1 23.811 7.77639 10.6817
1 24.6047 6.98268 10.6817
1 24.5927 7.75708 9.89445
1 23.799 6.9516 9.88188
1 25.3984 7.77639 10.6817
1 26.1921 6.98268 10.6817
1 26.1945 7.77311 9.85945
1 25.4102 6.97009 9.89469
1 26.9858 7.77639 10.6817
1 27.7795 6.98268 10.6817
1 27.7679 7.78427 9.8983
1 26.9864 6.98367 9.88028
1 28.5732 7.77639 10.6817
1 29.3669 6.98268 10.6817
1 29.2982 7.77624 9.86525
1 28.5381 6.97579 9.87701
1 30 6.18898 10.6817
1 0.793701 5.39528 10.6817
1 0.84442 6.17332 9.86174
1 0.0375943 5.38994 9.84979
1 1.5874 6.18898 10.6817
1 2.3811 5.39528 10.6817
1 2.39405 6.18589 9.88301
1 1.59032 5.38398 9.91751
1 3.1748 6.18898 10.6817
1 3.9685 5.39528 10.6817
1 3.99442 6.1979 9.86771
1 3.19523 5.39287 9.89241
1 4.7622 6.18898 10.6817
1 5.5559 5.39528 10.6817
1 5.55817 6.20928 9.89704
1 4.78231 5.37351 9.90313
1 6.3496 6.18898 10.6817
1 7.1433 5.39528 10.6817
1 7.14925 6.15861 9.86269
1 6.32723 5.40127 9.89167
1 7.93701 6.18898 10.6817
1 8.73071 5.39528 10.6817
1 8.73347 6.20148 9.89752
1 7.95378 5.4038 9.88867
1 9.52441 6.18898 10.6817