9376
Atoms. Timestep: 4000000
1 15 3.55271e-15 10.6199
1 15.7937 29.2063 10.6199
1 15.8379 29.9666 9.80794
1 15.0626 29.1749 9.7808
1 16.5874 3.55271e-15 10.6199
1 17.3811 29.2063 10.6199
1 17.4078 29.9191 9.7968
1 16.6128 29.166 9.7828
1 18.1748 3.55271e-15 10.6199
1 18.9685 29.2063 10.6199
1 19.006 29.9538 9.78268
1 18.1842 29.1698 9.83561
1 19.7622 3.55271e-15 10.6199
1 20.5559 29.2063 10.6199
1 20.551 29.9444 9.77938
1 19.7691 29.168 9.83165
1 21.3496 3.55271e-15 10.6199
1 22.1433 29.2063 10.6199
1 22.1417 29.9242 9.79195
1 21.347 29.1477 9.81721
1 22.937 3.55271e-15 10.6199
1 23.7307 29.2063 10.6199
1 23.7252 29.9191 9.82993
1 22.9596 29.169 9.80459
1 24.5244 3.55271e-15 10.6199
1 25.3181 29.2063 10.6199
1 25.3352 29.8993 9.77563
1 24.5322 29.16 9.80309
1 26.1118 3.55271e-15 10.6199
1 26.9055 29.2063 10.6199
1 26.912 29.9301 9.78678
1 26.0991 29.1689 9.81605
1 27.6992 3.55271e-15 10.6199
1 28.4929 29.2063 10.6199
1 28.4924 29.9484 9.8002
1 27.7111 29.1815 9.81152
1 29.2866 3.55271e-15 10.6199
1 0.08031 29.2063 10.6199
1 0.0825103 29.9343 9.80118
1 29.2937 29.1872 9.81729
1 0.874011 3.55271e-15 10.6199
1 1.66771 29.2063 10.6199
1 1.6656 29.9604 9.78519
1 0.879652 29.1897 9.81486
1 2.46141 3.55271e-15 10.6199
1 3.25511 29.2063 10.6199
1 3.28049 29.929 9.81166
1 2.4495 29.1576 9.80561
1 4.04881 3.55271e-15 10.6199
1 4.84251 29.2063 10.6199
1 4.83143 29.9553 9.80906
1 4.05526 29.1503 9.80076
1 5.63621 3.55271e-15 10.6199
1 6.42991 29.2063 10.6199
1 6.42528 29.9429 9.79629
1 5.66334 29.2087 9.82554
1 7.22361 3.55271e-15 10.6199
1 8.01732 29.2063 10.6199
1 8.04042 29.9349 9.78847
1 7.23252 29.1747 9.82357
1 8.81102 3.55271e-15 10.6199
1 9.60472 29.2063 10.6199
1 9.60602 29.9061 9.7992
1 8.78272 29.1831 9.83483
1 10.3984 3.55271e-15 10.6199
1 11.1921 29.2063 10.6199
1 11.2071 29.9334 9.78444
1 10.403 29.1864 9.83513
1 11.9858 3.55271e-15 10.6199
1 12.7795 29.2063 10.6199
1 12.7121 29.9284 9.78672
1 11.9602 29.1567 9.817
1 13.5732 3.55271e-15 10.6199
1 14.3669 29.2063 10.6199
1 14.2805 29.942 9.76158
1 13.5462 29.1762 9.80981
1 15 28.4126 10.6199
1 15.7937 27.6189 10.6199
1 15.8313 28.3913 9.80738
1 15.0625 27.6368 9.80972
1 16.5874 28.4126 10.6199
1 17.3811 27.6189 10.6199
1 17.3945 28.4113 9.84298
1 16.5726 27.6171 9.82867
1 18.1748 28.4126 10.6199
1 18.9685 27.6189 10.6199
1 18.9704 28.3812 9.83552
1 18.1653 27.599 9.80586
1 19.7622 28.4126 10.6199
1 20.5559 27.6189 10.6199
1 20.5771 28.3762 9.8327
1 19.7507 27.6098 9.8201
1 21.3496 28.4126 10.6199
1 22.1433 27.6189 10.6199
1 22.1621 28.392 9.80228
1 21.3105 27.589 9.80313
1 22.937 28.4126 10.6199
1 23.7307 27.6189 10.6199
1 23.7485 28.3742 9.82707
1 22.9567 27.6015 9.84303
1 24.5244 28.4126 10.6199
1 25.3181 27.6189 10.6199
1 25.3077 28.3897 9.80977
1 24.5457 27.6119 9.82002
1 26.1118 28.4126 10.6199
1 26.9055 27.6189 10.6199
1 26.9363 28.4028 9.83295
1 26.1117 27.6317 9.82393
1 27.6992 28.4126 10.6199
1 28.4929 27.6189 10.6199
1 28.4978 28.3941 9.82106
1 27.7043 27.5935 9.81184
1 29.2866 28.4126 10.6199
1 0.08031 27.6189 10.6199
1 0.100517 28.4052 9.81151
1 29.2766 27.6266 9.83484
1 0.874011 28.4126 10.6199
1 1.66771 27.6189 10.6199
1 1.67011 28.3654 9.79355
1 0.861533 27.5922 9.81448
1 2.46141 28.4126 10.6199
1 3.25511 27.6189 10.6199
1 3.24022 28.4047 9.80842
1 2.48341 27.599 9.83218
1 4.04881 28.4126 10.6199
1 4.84251 27.6189 10.6199
1 4.87047 28.4116 9.84103
1 4.06427 27.5944 9.853
1 5.63621 28.4126 10.6199
1 6.42991 27.6189 10.6199
1 6.42007 28.3975 9.83049
1 5.64697 27.6177 9.83989
1 7.22361 28.4126 10.6199
1 8.01732 27.6189 10.6199
1 8.01271 28.375 9.82358
1 7.21248 27.5881 9.84533
1 8.81102 28.4126 10.6199
1 9.60472 27.6189 10.6199
1 9.60899 28.3852 9.82797
1 8.79178 27.5909 9.82993
1 10.3984 28.4126 10.6199
1 11.1921 27.6189 10.6199
1 11.1718 28.3796 9.81602
1 10.39 27.5858 9.83544
1 11.9858 28.4126 10.6199
1 12.7795 27.6189 10.6199
1 12.7604 28.3955 9.83629
1 11.9737 27.6111 9.83385
1 13.5732 28.4126 10.6199
1 14.3669 27.6189 10.6199
1 14.2912 28.4045 9.78846
1 13.5479 27.6036 9.84398
1 15 26.8252 10.6199
1 15.7937 26.0315 10.6199
1 15.8293 26.8286 9.80037
1 15.0634 26.0062 9.80619
1 16.5874 26.8252 10.6199
1 17.3811 26.0315 10.6199
1 17.379 26.8434 9.8368
1 16.6115 26.0141 9.81773
1 18.1748 26.8252 10.6199
1 18.9685 26.0315 10.6199
1 18.9643 26.8079 9.81784
1 18.1722 26.0346 9.83109
1 19.7622 26.8252 10.6199
1 20.5559 26.0315 10.6199
1 20.5451 26.7939 9.8099
1 19.7594 25.9883 9.83676
1 21.3496 26.8252 10.6199
1 22.1433 26.0315 10.6199
1 22.1482 26.8463 9.82828
1 21.3427 26.0236 9.82559
1 22.937 26.8252 10.6199
1 23.7307 26.0315 10.6199
1 23.7276 26.8331 9.85617
1 22.9416 26.0227 9.81984
1 24.5244 26.8252 10.6199
1 25.3181 26.0315 10.6199
1 25.32 26.8035 9.81925
1 24.5244 26.022 9.84125
1 26.1118 26.8252 10.6199
1 26.9055 26.0315 10.6199
1 26.8997 26.8323 9.81185
1 26.1319 26.0137 9.85319
1 27.6992 26.8252 10.6199
1 28.4929 26.0315 10.6199
1 28.5093 26.8272 9.83176
1 27.7004 26.055 9.82362
1 29.2866 26.8252 10.6199
1 0.08031 26.0315 10.6199
1 0.0688836 26.8235 9.83088
1 29.2686 25.9999 9.86984
1 0.874011 26.8252 10.6199
1 1.66771 26.0315 10.6199
1 1.67018 26.8383 9.83249
1 0.871067 26.0311 9.83263
1 2.46141 26.8252 10.6199
1 3.25511 26.0315 10.6199
1 3.24057 26.8012 9.84195
1 2.47366 26.03 9.82545
1 4.04881 26.8252 10.6199
1 4.84251 26.0315 10.6199
1 4.84464 26.7969 9.82441
1 4.05651 26.0119 9.84452
1 5.63621 26.8252 10.6199
1 6.42991 26.0315 10.6199
1 6.40227 26.8194 9.84761
1 5.6449 26.031 9.84237
1 7.22361 26.8252 10.6199
1 8.01732 26.0315 10.6199
1 8.01984 26.7963 9.8272
1 7.1964 26.0347 9.8313
1 8.81102 26.8252 10.6199
1 9.60472 26.0315 10.6199
1 9.60348 26.8387 9.8345
1 8.79898 26.0276 9.84972
1 10.3984 26.8252 10.6199
1 11.1921 26.0315 10.6199
1 11.1867 26.8062 9.83455
1 10.3724 26.0336 9.81749
1 11.9858 26.8252 10.6199
1 12.7795 26.0315 10.6199
1 12.7786 26.8252 9.85576
1 11.9624 26.0166 9.83792
1 13.5732 26.8252 10.6199
1 14.3669 26.0315 10.6199
1 14.2861 26.8346 9.80845
1 13.5657 26.0318 9.84486
1 15 25.2378 10.6199
1 15.7937 24.4441 10.6199
1 15.8523 25.2279 9.83928
1 15.0849 24.431 9.83045
1 16.5874 25.2378 10.6199
1 17.3811 24.4441 10.6199
1 17.3953 25.2212 9.8487
1 16.6093 24.4236 9.84371
1 18.1748 25.2378 10.6199
1 18.9685 24.4441 10.6199
1 18.9617 25.2199 9.84647
1 18.1763 24.4293 9.81825
1 19.7622 25.2378 10.6199
1 20.5559 24.4441 10.6199
1 20.556 25.2531 9.82978
1 19.7823 24.4477 9.82951
1 21.3496 25.2378 10.6199
1 22.1433 24.4441 10.6199
1 22.1196 25.2321 9.78956
1 21.3384 24.4585 9.83274
1 22.937 25.2378 10.6199
1 23.7307 24.4441 10.6199
1 23.7233 25.2405 9.8087
1 22.9335 24.455 9.82509
1 24.5244 25.2378 10.6199
1 25.3181 24.4441 10.6199
1 25.3367 25.2194 9.83172
1 24.5295 24.4492 9.82049
1 26.1118 25.2378 10.6199
1 26.9055 24.4441 10.6199
1 26.9216 25.2328 9.8137
1 26.118 24.454 9.83704
1 27.6992 25.2378 10.6199
1 28.4929 24.4441 10.6199
1 28.5035 25.2207 9.8345
1 27.7051 24.435 9.83809
1 29.2866 25.2378 10.6199
1 0.08031 24.4441 10.6199
1 0.084821 25.2201 9.83385
1 29.2804 24.4457 9.82424
1 0.874011 25.2378 10.6199
1 1.66771 24.4441 10.6199
1 1.65366 25.2324 9.81862
1 0.873991 24.4754 9.84374
1 2.46141 25.2378 10.6199
1 3.25511 24.4441 10.6199
1 3.22998 25.2254 9.81465
1 2.44092 24.4346 9.82064
1 4.04881 25.2378 10.6199
1 4.84251 24.4441 10.6199
1 4.8222 25.2332 9.81845
1 4.02899 24.4427 9.81023
1 5.63621 25.2378 10.6199
1 6.42991 24.4441 10.6199
1 6.45554 25.26 9.82708
1 5.66237 24.4351 9.82081
1 7.22361 25.2378 10.6199
1 8.01732 24.4441 10.6199
1 8.01392 25.247 9.82348
1 7.24109 24.4343 9.83045
1 8.81102 25.2378 10.6199
1 9.60472 24.4441 10.6199
1 9.58907 25.2281 9.83171
1 8.80559 24.4512 9.81331
1 10.3984 25.2378 10.6199
1 11.1921 24.4441 10.6199
1 11.1778 25.2192 9.84035
1 10.3667 24.4491 9.82186
1 11.9858 25.2378 10.6199
1 12.7795 24.4441 10.6199
1 12.7821 25.2157 9.83314
1 11.9785 24.4318 9.82567
1 13.5732 25.2378 10.6199
1 14.3669 24.4441 10.6199
1 14.3047 25.2145 9.80163
1 13.5678 24.3957 9.82866
1 15 23.6504 10.6199
1 15.7937 22.8567 10.6199
1 15.8266 23.6385 9.84443
1 15.0715 22.8428 9.78733
1 16.5874 23.6504 10.6199
1 17.3811 22.8567 10.6199
1 17.3787 23.6186 9.8386
1 16.5875 22.8559 9.81452
1 18.1748 23.6504 10.6199
1 18.9685 22.8567 10.6199
1 18.9831 23.6449 9.83868
1 18.213 22.8426 9.82844
1 19.7622 23.6504 10.6199
1 20.5559 22.8567 10.6199
1 20.5433 23.6374 9.8174
1 19.7582 22.8459 9.84795
1 21.3496 23.6504 10.6199
1 22.1433 22.8567 10.6199
1 22.1298 23.6606 9.82767
1 21.3526 22.8433 9.80491
1 22.937 23.6504 10.6199
1 23.7307 22.8567 10.6199
1 23.744 23.6314 9.83108
1 22.9301 22.8697 9.83423
1 24.5244 23.6504 10.6199
1 25.3181 22.8567 10.6199
1 25.3384 23.6368 9.84251
1 24.545 22.849 9.81403
1 26.1118 23.6504 10.6199
1 26.9055 22.8567 10.6199
1 26.9139 23.6432 9.83001
1 26.1259 22.8392 9.85996
1 27.6992 23.6504 10.6199
1 28.4929 22.8567 10.6199
1 28.5244 23.6639 9.83675
1 27.6928 22.8605 9.84322
1 29.2866 23.6504 10.6199
1 0.08031 22.8567 10.6199
1 0.0880757 23.649 9.80296
1 29.2861 22.8482 9.83034
1 0.874011 23.6504 10.6199
1 1.66771 22.8567 10.6199
1 1.65999 23.6515 9.83727
1 0.868672 22.8767 9.82085
1 2.46141 23.6504 10.6199
1 3.25511 22.8567 10.6199
1 3.25707 23.6416 9.80601
1 2.49125 22.873 9.8236
1 4.04881 23.6504 10.6199
1 4.84251 22.8567 10.6199
1 4.8221 23.6562 9.8293
1 4.06004 22.8533 9.82707
1 5.63621 23.6504 10.6199
1 6.42991 22.8567 10.6199
1 6.42948 23.649 9.79049
1 5.66623 22.8497 9.81042
1 7.22361 23.6504 10.6199
1 8.01732 22.8567 10.6199
1 8.02707 23.6493 9.80653
1 7.23953 22.8688 9.84055
1 8.81102 23.6504 10.6199
1 9.60472 22.8567 10.6199
1 9.57652 23.6051 9.81047
1 8.79768 22.8287 9.81674
1 10.3984 23.6504 10.6199
1 11.1921 22.8567 10.6199
1 11.1578 23.6381 9.82166
1 10.3819 22.8539 9.82973
1 11.9858 23.6504 10.6199
1 12.7795 22.8567 10.6199
1 12.7472 23.6394 9.83402
1 11.9433 22.8641 9.84304
1 13.5732 23.6504 10.6199
1 14.3669 22.8567 10.6199
1 14.3279 23.6318 9.79381
1 13.5683 22.8671 9.81938
1 15 22.063 10.6199
1 15.7937 21.2693 10.6199
1 15.798 22.0762 9.81635
1 15.0634 21.2848 9.80078
1 16.5874 22.063 10.6199
1 17.3811 21.2693 10.6199
1 17.3877 22.0542 9.80481
1 16.5884 21.2761 9.83574
1 18.1748 22.063 10.6199
1 18.9685 21.2693 10.6199
1 18.9859 22.0337 9.85285
1 18.2015 21.2558 9.85272
1 19.7622 22.063 10.6199
1 20.5559 21.2693 10.6199
1 20.5727 22.0553 9.83345
1 19.7599 21.2638 9.7917
1 21.3496 22.063 10.6199
1 22.1433 21.2693 10.6199
1 22.167 22.0531 9.84516
1 21.3514 21.277 9.84305
1 22.937 22.063 10.6199
1 23.7307 21.2693 10.6199
1 23.7299 22.0787 9.82239
1 22.9516 21.2598 9.81382
1 24.5244 22.063 10.6199
1 25.3181 21.2693 10.6199
1 25.3239 22.0713 9.81068
1 24.5107 21.2783 9.84433
1 26.1118 22.063 10.6199
1 26.9055 21.2693 10.6199
1 26.8952 22.0861 9.81805
1 26.0927 21.2752 9.827
1 27.6992 22.063 10.6199
1 28.4929 21.2693 10.6199
1 28.4885 22.0488 9.82989
1 27.7342 21.2962 9.83468
1 29.2866 22.063 10.6199
1 0.08031 21.2693 10.6199
1 0.0830613 22.0433 9.82831
1 29.2904 21.2635 9.82778
1 0.874011 22.063 10.6199
1 1.66771 21.2693 10.6199
1 1.68116 22.0743 9.79986
1 0.872921 21.2791 9.82306
1 2.46141 22.063 10.6199
1 3.25511 21.2693 10.6199
1 3.25376 22.067 9.82661
1 2.46753 21.2457 9.81439
1 4.04881 22.063 10.6199
1 4.84251 21.2693 10.6199
1 4.83173 22.0567 9.83355
1 4.04736 21.2752 9.83753
1 5.63621 22.063 10.6199
1 6.42991 21.2693 10.6199
1 6.43759 22.039 9.83751
1 5.63114 21.2798 9.83369
1 7.22361 22.063 10.6199
1 8.01732 21.2693 10.6199
1 7.99838 22.0642 9.84843
1 7.2547 21.2507 9.85155
1 8.81102 22.063 10.6199
1 9.60472 21.2693 10.6199
1 9.60808 22.0501 9.80498
1 8.8075 21.2699 9.83429
1 10.3984 22.063 10.6199
1 11.1921 21.2693 10.6199
1 11.1893 22.0587 9.82023
1 10.3798 21.2751 9.81275
1 11.9858 22.063 10.6199
1 12.7795 21.2693 10.6199
1 12.7341 22.0735 9.82931
1 11.9684 21.2556 9.83533
1 13.5732 22.063 10.6199
1 14.3669 21.2693 10.6199
1 14.2887 22.0658 9.79036
1 13.5447 21.2842 9.81348
1 15 20.4756 10.6199
1 15.7937 19.6819 10.6199
1 15.8217 20.4771 9.8038
1 15.0702 19.6859 9.80469
1 16.5874 20.4756 10.6199
1 17.3811 19.6819 10.6199
1 17.4026 20.4991 9.81564
1 16.5967 19.6679 9.83612
1 18.1748 20.4756 10.6199
1 18.9685 19.6819 10.6199
1 18.9925 20.465 9.84232
1 18.1798 19.6713 9.82381
1 19.7622 20.4756 10.6199
1 20.5559 19.6819 10.6199
1 20.5754 20.4811 9.80318
1 19.7835 19.6856 9.84962
1 21.3496 20.4756 10.6199
1 22.1433 19.6819 10.6199
1 22.1575 20.4761 9.82898
1 21.3796 19.7034 9.83455
1 22.937 20.4756 10.6199
1 23.7307 19.6819 10.6199
1 23.7162 20.453 9.824
1 22.9459 19.6881 9.8249
1 24.5244 20.4756 10.6199
1 25.3181 19.6819 10.6199
1 25.3239 20.4853 9.80971
1 24.5245 19.6624 9.81998
1 26.1118 20.4756 10.6199
1 26.9055 19.6819 10.6199
1 26.8863 20.4809 9.81307
1 26.0953 19.6595 9.82209
1 27.6992 20.4756 10.6199
1 28.4929 19.6819 10.6199
1 28.4987 20.4781 9.8352
1 27.6888 19.6828 9.8393
1 29.2866 20.4756 10.6199
1 0.08031 19.6819 10.6199
1 0.0814647 20.4763 9.8254
1 29.2989 19.6923 9.81
1 0.874011 20.4756 10.6199
1 1.66771 19.6819 10.6199
1 1.64215 20.4881 9.81626
1 0.878388 19.6851 9.81079
1 2.46141 20.4756 10.6199
1 3.25511 19.6819 10.6199
1 3.26331 20.4716 9.80309
1 2.43929 19.662 9.82081
1 4.04881 20.4756 10.6199
1 4.84251 19.6819 10.6199
1 4.84657 20.4773 9.86173
1 4.03929 19.6829 9.82451
1 5.63621 20.4756 10.6199
1 6.42991 19.6819 10.6199
1 6.42038 20.4414 9.82148
1 5.63852 19.685 9.85123
1 7.22361 20.4756 10.6199
1 8.01732 19.6819 10.6199
1 8.02407 20.4659 9.82156
1 7.23871 19.6771 9.82468
1 8.81102 20.4756 10.6199
1 9.60472 19.6819 10.6199
1 9.58628 20.4936 9.83842
1 8.7985 19.6789 9.82701
1 10.3984 20.4756 10.6199
1 11.1921 19.6819 10.6199
1 11.181 20.4852 9.85359
1 10.3737 19.6971 9.82702
1 11.9858 20.4756 10.6199
1 12.7795 19.6819 10.6199
1 12.7677 20.4832 9.8397
1 11.952 19.6734 9.83431
1 13.5732 20.4756 10.6199
1 14.3669 19.6819 10.6199
1 14.3139 20.4974 9.79371
1 13.5445 19.6923 9.83527
1 15 18.8882 10.6199
1 15.7937 18.0945 10.6199
1 15.7858 18.8972 9.81567
1 15.0735 18.1064 9.80471
1 16.5874 18.8882 10.6199
1 17.3811 18.0945 10.6199
1 17.4098 18.86 9.82636
1 16.6126 18.1138 9.83665
1 18.1748 18.8882 10.6199
1 18.9685 18.0945 10.6199
1 18.9792 18.8939 9.81565
1 18.2103 18.0866 9.8141
1 19.7622 18.8882 10.6199
1 20.5559 18.0945 10.6199
1 20.5405 18.8773 9.84389
1 19.7895 18.1261 9.81797
1 21.3496 18.8882 10.6199
1 22.1433 18.0945 10.6199
1 22.1533 18.8998 9.84944
1 21.3669 18.08 9.83795
1 22.937 18.8882 10.6199
1 23.7307 18.0945 10.6199
1 23.7113 18.8797 9.81606
1 22.927 18.086 9.81753
1 24.5244 18.8882 10.6199
1 25.3181 18.0945 10.6199
1 25.2934 18.8659 9.81063
1 24.5219 18.0969 9.80676
1 26.1118 18.8882 10.6199
1 26.9055 18.0945 10.6199
1 26.8734 18.874 9.82732
1 26.1079 18.0895 9.81084
1 27.6992 18.8882 10.6199
1 28.4929 18.0945 10.6199
1 28.4888 18.8836 9.80589
1 27.701 18.0837 9.82988
1 29.2866 18.8882 10.6199
1 0.08031 18.0945 10.6199
1 0.0678084 18.9011 9.8229
1 29.287 18.0982 9.82675
1 0.874011 18.8882 10.6199
1 1.66771 18.0945 10.6199
1 1.67453 18.8994 9.80732
1 0.859276 18.0758 9.84859
1 2.46141 18.8882 10.6199
1 3.25511 18.0945 10.6199
1 3.23434 18.8735 9.83744
1 2.47608 18.095 9.82683
1 4.04881 18.8882 10.6199
1 4.84251 18.0945 10.6199
1 4.84613 18.8617 9.81581
1 4.03648 18.0946 9.83705
1 5.63621 18.8882 10.6199
1 6.42991 18.0945 10.6199
1 6.43174 18.9067 9.81494
1 5.64781 18.0929 9.84424
1 7.22361 18.8882 10.6199
1 8.01732 18.0945 10.6199
1 8.0261 18.8724 9.83885
1 7.22887 18.0932 9.83366
1 8.81102 18.8882 10.6199
1 9.60472 18.0945 10.6199
1 9.6045 18.8744 9.80421
1 8.81422 18.0912 9.82533
1 10.3984 18.8882 10.6199
1 11.1921 18.0945 10.6199
1 11.1631 18.908 9.79665
1 10.3828 18.0928 9.79674
1 11.9858 18.8882 10.6199
1 12.7795 18.0945 10.6199
1 12.7414 18.9016 9.8239
1 11.9636 18.11 9.82872
1 13.5732 18.8882 10.6199
1 14.3669 18.0945 10.6199
1 14.3184 18.9078 9.79278
1 13.5407 18.1086 9.80541
1 15 17.3008 10.6199
1 15.7937 16.5071 10.6199
1 15.8096 17.2838 9.83873
1 15.0435 16.5223 9.7738
1 16.5874 17.3008 10.6199
1 17.3811 16.5071 10.6199
1 17.3993 17.3157 9.82613
1 16.6112 16.5396 9.83876
1 18.1748 17.3008 10.6199
1 18.9685 16.5071 10.6199
1 18.9775 17.2835 9.80918
1 18.1791 16.4984 9.83785
1 19.7622 17.3008 10.6199
1 20.5559 16.5071 10.6199
1 20.5591 17.3064 9.83486
1 19.7678 16.5297 9.81718
1 21.3496 17.3008 10.6199
1 22.1433 16.5071 10.6199
1 22.1223 17.2695 9.82346
1 21.3201 16.5226 9.82502
1 22.937 17.3008 10.6199
1 23.7307 16.5071 10.6199
1 23.7411 17.2914 9.805
1 22.9638 16.5304 9.81065
1 24.5244 17.3008 10.6199
1 25.3181 16.5071 10.6199
1 25.3401 17.2999 9.80914
1 24.5249 16.5302 9.81399
1 26.1118 17.3008 10.6199
1 26.9055 16.5071 10.6199
1 26.8871 17.3077 9.80879
1 26.1255 16.5071 9.82059
1 27.6992 17.3008 10.6199
1 28.4929 16.5071 10.6199
1 28.4817 17.2807 9.84354
1 27.703 16.5391 9.83335
1 29.2866 17.3008 10.6199
1 0.08031 16.5071 10.6199
1 0.0719687 17.2824 9.85245
1 29.2938 16.5024 9.83169
1 0.874011 17.3008 10.6199
1 1.66771 16.5071 10.6199
1 1.70206 17.3046 9.82075
1 0.894192 16.5298 9.83448
1 2.46141 17.3008 10.6199
1 3.25511 16.5071 10.6199
1 3.27007 17.2983 9.83254
1 2.47865 16.4916 9.82932
1 4.04881 17.3008 10.6199
1 4.84251 16.5071 10.6199
1 4.86583 17.3096 9.81941
1 4.07724 16.5031 9.8321
1 5.63621 17.3008 10.6199
1 6.42991 16.5071 10.6199
1 6.44105 17.3019 9.82675
1 5.65092 16.4951 9.83586
1 7.22361 17.3008 10.6199
1 8.01732 16.5071 10.6199
1 8.03981 17.2907 9.85419
1 7.20728 16.5143 9.84156
1 8.81102 17.3008 10.6199
1 9.60472 16.5071 10.6199
1 9.6434 17.3028 9.84165
1 8.81902 16.5058 9.81347
1 10.3984 17.3008 10.6199
1 11.1921 16.5071 10.6199
1 11.2124 17.3167 9.81897
1 10.4288 16.5166 9.82136
1 11.9858 17.3008 10.6199
1 12.7795 16.5071 10.6199
1 12.7877 17.2966 9.83694
1 11.9493 16.5128 9.83816
1 13.5732 17.3008 10.6199
1 14.3669 16.5071 10.6199
1 14.2949 17.3134 9.81272
1 13.5434 16.4861 9.83771
1 15 15.7134 10.6199
1 15.7937 14.9197 10.6199
1 15.8344 15.7342 9.79979
1 15.0477 14.9206 9.78763
1 16.5874 15.7134 10.6199
1 17.3811 14.9197 10.6199
1 17.3974 15.716 9.82973
1 16.6114 14.9291 9.82714
1 18.1748 15.7134 10.6199
1 18.9685 14.9197 10.6199
1 18.9698 15.7031 9.82739
1 18.1614 14.9187 9.81328
1 19.7622 15.7134 10.6199
1 20.5559 14.9197 10.6199
1 20.5425 15.7004 9.84995
1 19.7432 14.9167 9.81655
1 21.3496 15.7134 10.6199
1 22.1433 14.9197 10.6199
1 22.1534 15.7405 9.81735
1 21.3725 14.9135 9.82162
1 22.937 15.7134 10.6199
1 23.7307 14.9197 10.6199
1 23.7455 15.7152 9.80852
1 22.9296 14.899 9.8233
1 24.5244 15.7134 10.6199
1 25.3181 14.9197 10.6199
1 25.3047 15.707 9.7989
1 24.5098 14.8945 9.84663
1 26.1118 15.7134 10.6199
1 26.9055 14.9197 10.6199
1 26.8942 15.7356 9.82545
1 26.0971 14.9156 9.82796
1 27.6992 15.7134 10.6199
1 28.4929 14.9197 10.6199
1 28.5023 15.7353 9.84178
1 27.6909 14.8977 9.82514
1 29.2866 15.7134 10.6199
1 0.08031 14.9197 10.6199
1 0.0856867 15.7394 9.83163
1 29.2725 14.9402 9.85019
1 0.874011 15.7134 10.6199
1 1.66771 14.9197 10.6199
1 1.67864 15.7323 9.84326
1 0.867637 14.9303 9.83569
1 2.46141 15.7134 10.6199
1 3.25511 14.9197 10.6199
1 3.25127 15.7173 9.82485
1 2.45529 14.9121 9.81527
1 4.04881 15.7134 10.6199
1 4.84251 14.9197 10.6199
1 4.84723 15.7306 9.84229
1 4.0515 14.9409 9.8429
1 5.63621 15.7134 10.6199
1 6.42991 14.9197 10.6199
1 6.44916 15.7233 9.83041
1 5.64254 14.9101 9.82709
1 7.22361 15.7134 10.6199
1 8.01732 14.9197 10.6199
1 7.99864 15.7273 9.84505
1 7.20276 14.9203 9.80891
1 8.81102 15.7134 10.6199
1 9.60472 14.9197 10.6199
1 9.60148 15.6916 9.8257
1 8.82489 14.9396 9.84083
1 10.3984 15.7134 10.6199
1 11.1921 14.9197 10.6199
1 11.1872 15.7258 9.80303
1 10.4162 14.9282 9.8235
1 11.9858 15.7134 10.6199
1 12.7795 14.9197 10.6199
1 12.7674 15.7002 9.83016
1 11.9647 14.9213 9.83049
1 13.5732 15.7134 10.6199
1 14.3669 14.9197 10.6199
1 14.2812 15.709 9.8038
1 13.5493 14.893 9.81873
1 15 14.126 10.6199
1 15.7937 13.3323 10.6199
1 15.8062 14.1355 9.82021
1 15.0747 13.3322 9.77303
1 16.5874 14.126 10.6199
1 17.3811 13.3323 10.6199
1 17.3977 14.1326 9.84676
1 16.6026 13.3324 9.82457
1 18.1748 14.126 10.6199
1 18.9685 13.3323 10.6199
1 18.952 14.1427 9.84237
1 18.1722 13.3256 9.82109
1 19.7622 14.126 10.6199
1 20.5559 13.3323 10.6199
1 20.5345 14.1153 9.80696
1 19.7374 13.3325 9.8031
1 21.3496 14.126 10.6199
1 22.1433 13.3323 10.6199
1 22.1473 14.1355 9.8065
1 21.3545 13.3311 9.82466
1 22.937 14.126 10.6199
1 23.7307 13.3323 10.6199
1 23.7053 14.1142 9.82031
1 22.9043 13.3274 9.82648
1 24.5244 14.126 10.6199
1 25.3181 13.3323 10.6199
1 25.311 14.1011 9.77905
1 24.5186 13.3287 9.81444
1 26.1118 14.126 10.6199
1 26.9055 13.3323 10.6199
1 26.9033 14.1204 9.81993
1 26.1259 13.3277 9.82717
1 27.6992 14.126 10.6199
1 28.4929 13.3323 10.6199
1 28.496 14.117 9.80499
1 27.7432 13.3344 9.82155
1 29.2866 14.126 10.6199
1 0.08031 13.3323 10.6199
1 0.0527743 14.1525 9.83558
1 29.2754 13.3194 9.82818
1 0.874011 14.126 10.6199
1 1.66771 13.3323 10.6199
1 1.65401 14.1292 9.83044
1 0.854075 13.3628 9.82107
1 2.46141 14.126 10.6199
1 3.25511 13.3323 10.6199
1 3.26414 14.1335 9.82907
1 2.46123 13.3419 9.83968
1 4.04881 14.126 10.6199
1 4.84251 13.3323 10.6199
1 4.85808 14.1153 9.85282
1 4.04945 13.298 9.80153
1 5.63621 14.126 10.6199
1 6.42991 13.3323 10.6199
1 6.45302 14.1052 9.83216
1 5.63977 13.312 9.84522
1 7.22361 14.126 10.6199
1 8.01732 13.3323 10.6199
1 8.00948 14.1113 9.82056
1 7.20918 13.3249 9.81586
1 8.81102 14.126 10.6199
1 9.60472 13.3323 10.6199
1 9.59392 14.1289 9.84853
1 8.81163 13.3167 9.81809
1 10.3984 14.126 10.6199
1 11.1921 13.3323 10.6199
1 11.1904 14.1364 9.84582
1 10.383 13.3612 9.84745
1 11.9858 14.126 10.6199
1 12.7795 13.3323 10.6199
1 12.7238 14.1012 9.83058
1 11.9533 13.3198 9.81674
1 13.5732 14.126 10.6199
1 14.3669 13.3323 10.6199
1 14.3052 14.0982 9.78053
1 13.5256 13.3199 9.82629
1 15 12.5386 10.6199
1 15.7937 11.7449 10.6199
1 15.8115 12.5292 9.82995
1 15.0713 11.7498 9.78439
1 16.5874 12.5386 10.6199
1 17.3811 11.7449 10.6199
1 17.3931 12.5482 9.81137
1 16.5967 11.753 9.80699
1 18.1748 12.5386 10.6199
1 18.9685 11.7449 10.6199
1 18.9542 12.5404 9.83999
1 18.1712 11.7208 9.81836
1 19.7622 12.5386 10.6199
1 20.5559 11.7449 10.6199
1 20.5605 12.5261 9.83693
1 19.7618 11.7461 9.83438
1 21.3496 12.5386 10.6199
1 22.1433 11.7449 10.6199
1 22.1661 12.5112 9.81822
1 21.3493 11.7308 9.82886
1 22.937 12.5386 10.6199
1 23.7307 11.7449 10.6199
1 23.7343 12.5597 9.83297
1 22.9456 11.7645 9.84268
1 24.5244 12.5386 10.6199
1 25.3181 11.7449 10.6199
1 25.3022 12.5194 9.80274
1 24.512 11.7554 9.83287
1 26.1118 12.5386 10.6199
1 26.9055 11.7449 10.6199
1 26.9235 12.5382 9.84874
1 26.1123 11.7284 9.815
1 27.6992 12.5386 10.6199
1 28.4929 11.7449 10.6199
1 28.498 12.5164 9.82232
1 27.7181 11.7548 9.83876
1 29.2866 12.5386 10.6199
1 0.08031 11.7449 10.6199
1 0.0891859 12.5642 9.83883
1 29.3161 11.742 9.8163
1 0.874011 12.5386 10.6199
1 1.66771 11.7449 10.6199
1 1.67118 12.5715 9.82489
1 0.876628 11.768 9.82702
1 2.46141 12.5386 10.6199
1 3.25511 11.7449 10.6199
1 3.24038 12.5258 9.8368
1 2.44991 11.7491 9.84158
1 4.04881 12.5386 10.6199
1 4.84251 11.7449 10.6199
1 4.84914 12.5409 9.80774
1 4.06134 11.7174 9.8075
1 5.63621 12.5386 10.6199
1 6.42991 11.7449 10.6199
1 6.44132 12.5104 9.81842
1 5.64197 11.7614 9.81874
1 7.22361 12.5386 10.6199
1 8.01732 11.7449 10.6199
1 8.00751 12.5422 9.83373
1 7.2246 11.7392 9.83775
1 8.81102 12.5386 10.6199
1 9.60472 11.7449 10.6199
1 9.57768 12.5451 9.80798
1 8.80212 11.7368 9.81233
1 10.3984 12.5386 10.6199
1 11.1921 11.7449 10.6199
1 11.17 12.5404 9.84607
1 10.3771 11.7468 9.82284
1 11.9858 12.5386 10.6199
1 12.7795 11.7449 10.6199
1 12.7851 12.5309 9.81911
1 11.9365 11.7563 9.85033
1 13.5732 12.5386 10.6199
1 14.3669 11.7449 10.6199
1 14.2872 12.5817 9.76801
1 13.5562 11.7491 9.82369
1 15 10.9512 10.6199
1 15.7937 10.1575 10.6199
1 15.8242 10.9799 9.78961
1 15.0853 10.1472 9.81424
1 16.5874 10.9512 10.6199
1 17.3811 10.1575 10.6199
1 17.3749 10.9551 9.84218
1 16.5749 10.146 9.81349
1 18.1748 10.9512 10.6199
1 18.9685 10.1575 10.6199
1 18.9711 10.9568 9.81225
1 18.166 10.1532 9.82631
1 19.7622 10.9512 10.6199
1 20.5559 10.1575 10.6199
1 20.5607 10.9683 9.82125
1 19.7581 10.1339 9.80747
1 21.3496 10.9512 10.6199
1 22.1433 10.1575 10.6199
1 22.1404 10.9512 9.82731
1 21.35 10.1537 9.83194
1 22.937 10.9512 10.6199
1 23.7307 10.1575 10.6199
1 23.7393 10.9571 9.81596
1 22.9326 10.1548 9.84672
1 24.5244 10.9512 10.6199
1 25.3181 10.1575 10.6199
1 25.3047 10.9566 9.80929
1 24.5123 10.1523 9.81824
1 26.1118 10.9512 10.6199
1 26.9055 10.1575 10.6199
1 26.9107 10.9275 9.81233
1 26.0872 10.1671 9.83594
1 27.6992 10.9512 10.6199
1 28.4929 10.1575 10.6199
1 28.4908 10.9527 9.79948
1 27.7129 10.1586 9.82552
1 29.2866 10.9512 10.6199
1 0.08031 10.1575 10.6199
1 0.0935219 10.9516 9.83056
1 29.2673 10.1703 9.83088
1 0.874011 10.9512 10.6199
1 1.66771 10.1575 10.6199
1 1.68235 10.9567 9.8253
1 0.855036 10.1353 9.82439
1 2.46141 10.9512 10.6199
1 3.25511 10.1575 10.6199
1 3.26917 10.9634 9.83756
1 2.46237 10.1771 9.83606
1 4.04881 10.9512 10.6199
1 4.84251 10.1575 10.6199
1 4.86483 10.9705 9.82996
1 4.03938 10.1639 9.83457
1 5.63621 10.9512 10.6199
1 6.42991 10.1575 10.6199
1 6.42497 10.9454 9.83024
1 5.6488 10.1451 9.82606
1 7.22361 10.9512 10.6199
1 8.01732 10.1575 10.6199
1 8.02285 10.938 9.79809
1 7.23253 10.1533 9.84497
1 8.81102 10.9512 10.6199
1 9.60472 10.1575 10.6199
1 9.61738 10.9595 9.81401
1 8.80612 10.1476 9.83246
1 10.3984 10.9512 10.6199
1 11.1921 10.1575 10.6199
1 11.1654 10.9636 9.83215
1 10.4119 10.1543 9.81469
1 11.9858 10.9512 10.6199
1 12.7795 10.1575 10.6199
1 12.7691 10.9598 9.81757
1 12.0206 10.1526 9.8464
1 13.5732 10.9512 10.6199
1 14.3669 10.1575 10.6199
1 14.3085 10.9455 9.79781
1 13.5609 10.1491 9.80502
1 15 9.36379 10.6199
1 15.7937 8.57009 10.6199
1 15.8246 9.36526 9.8059
1 15.0855 8.58303 9.80324
1 16.5874 9.36379 10.6199
1 17.3811 8.57009 10.6199
1 17.3777 9.35583 9.81603
1 16.6162 8.55988 9.78566
1 18.1748 9.36379 10.6199
1 18.9685 8.57009 10.6199
1 18.9683 9.35014 9.81672
1 18.2083 8.54568 9.82684
1 19.7622 9.36379 10.6199
1 20.5559 8.57009 10.6199
1 20.543 9.34942 9.83139
1 19.7487 8.55807 9.83434
1 21.3496 9.36379 10.6199
1 22.1433 8.57009 10.6199
1 22.1586 9.35837 9.83936
1 21.3483 8.58936 9.79044
1 22.937 9.36379 10.6199
1 23.7307 8.57009 10.6199
1 23.7372 9.35508 9.82813
1 22.9567 8.56575 9.8312
1 24.5244 9.36379 10.6199
1 25.3181 8.57009 10.6199
1 25.3408 9.35824 9.85468
1 24.5289 8.58512 9.85285
1 26.1118 9.36379 10.6199
1 26.9055 8.57009 10.6199
1 26.9288 9.38025 9.80936
1 26.1247 8.58593 9.83553
1 27.6992 9.36379 10.6199
1 28.4929 8.57009 10.6199
1 28.4888 9.35358 9.82949
1 27.6893 8.57126 9.82873
1 29.2866 9.36379 10.6199
1 0.08031 8.57009 10.6199
1 0.0473582 9.33649 9.84912
1 29.2804 8.58894 9.82943
1 0.874011 9.36379 10.6199
1 1.66771 8.57009 10.6199
1 1.65275 9.34989 9.825
1 0.835862 8.57376 9.83751
1 2.46141 9.36379 10.6199
1 3.25511 8.57009 10.6199
1 3.27818 9.39914 9.82888
1 2.46153 8.58908 9.85102
1 4.04881 9.36379 10.6199
1 4.84251 8.57009 10.6199
1 4.83463 9.38293 9.82398
1 4.04742 8.57828 9.83353
1 5.63621 9.36379 10.6199
1 6.42991 8.57009 10.6199
1 6.43314 9.37601 9.81936
1 5.63963 8.56299 9.82812
1 7.22361 9.36379 10.6199
1 8.01732 8.57009 10.6199
1 8.01837 9.3551 9.84488
1 7.21218 8.5698 9.82108
1 8.81102 9.36379 10.6199
1 9.60472 8.57009 10.6199
1 9.60864 9.33906 9.83623
1 8.80215 8.54673 9.80865
1 10.3984 9.36379 10.6199
1 11.1921 8.57009 10.6199
1 11.1775 9.34696 9.84828
1 10.3836 8.58772 9.84272
1 11.9858 9.36379 10.6199
1 12.7795 8.57009 10.6199
1 12.748 9.35188 9.8295
1 11.9712 8.55514 9.8008
1 13.5732 9.36379 10.6199
1 14.3669 8.57009 10.6199
1 14.2959 9.35947 9.78849
1 13.5371 8.5736 9.84477
1 15 7.77639 10.6199
1 15.7937 6.98268 10.6199
1 15.8137 7.77111 9.82598
1 15.0857 6.99512 9.83583
1 16.5874 7.77639 10.6199
1 17.3811 6.98268 10.6199
1 17.4068 7.7729 9.83493
1 16.5739 6.99185 9.79474
1 18.1748 7.77639 10.6199
1 18.9685 6.98268 10.6199
1 18.9968 7.76384 9.82041
1 18.1904 6.9839 9.82866
1 19.7622 7.77639 10.6199
1 20.5559 6.98268 10.6199
1 20.5362 7.76433 9.8073
1 19.754 6.97545 9.80038
1 21.3496 7.77639 10.6199
1 22.1433 6.98268 10.6199
1 22.1615 7.78086 9.83233
1 21.3556 6.97245 9.84324
1 22.937 7.77639 10.6199
1 23.7307 6.98268 10.6199
1 23.7223 7.78485 9.84145
1 22.9323 6.9703 9.83418
1 24.5244 7.77639 10.6199
1 25.3181 6.98268 10.6199
1 25.3405 7.78955 9.83805
1 24.534 6.98935 9.84417
1 26.1118 7.77639 10.6199
1 26.9055 6.98268 10.6199
1 26.9118 7.77193 9.84011
1 26.1372 6.96225 9.84434
1 27.6992 7.77639 10.6199
1 28.4929 6.98268 10.6199
1 28.4748 7.78251 9.85421
1 27.6826 6.992 9.85406
1 29.2866 7.77639 10.6199
1 0.08031 6.98268 10.6199
1 0.0599194 7.76017 9.81805
1 29.28 6.98215 9.83559
1 0.874011 7.77639 10.6199
1 1.66771 6.98268 10.6199
1 1.67844 7.78552 9.84264
1 0.849108 7.00415 9.8398
1 2.46141 7.77639 10.6199
1 3.25511 6.98268 10.6199
1 3.27724 7.78095 9.81382
1 2.46708 7.00577 9.84822
1 4.04881 7.77639 10.6199
1 4.84251 6.98268 10.6199
1 4.8652 7.78676 9.82805
1 4.05825 7.00324 9.8483
1 5.63621 7.77639 10.6199
1 6.42991 6.98268 10.6199
1 6.45677 7.7626 9.82067
1 5.63797 7.00045 9.82674
1 7.22361 7.77639 10.6199
1 8.01732 6.98268 10.6199
1 8.0245 7.76753 9.81905
1 7.19206 6.99098 9.84098
1 8.81102 7.77639 10.6199
1 9.60472 6.98268 10.6199
1 9.58252 7.76783 9.84625
1 8.82331 6.98687 9.80507
1 10.3984 7.77639 10.6199
1 11.1921 6.98268 10.6199
1 11.1555 7.78393 9.83488
1 10.3744 6.97987 9.80317
1 11.9858 7.77639 10.6199
1 12.7795 6.98268 10.6199
1 12.7728 7.78213 9.83488
1 11.9631 6.99343 9.83447
1 13.5732 7.77639 10.6199
1 14.3669 6.98268 10.6199
1 14.3291 7.78404 9.7883
1 13.5615 6.97579 9.80313
1 15 6.18898 10.6199
1 15.7937 5.39528 10.6199
1 15.8099 6.18227 9.82218
1 15.063 5.39853 9.79124
1 16.5874 6.18898 10.6199
1 17.3811 5.39528 10.6199
1 17.3872 6.2055 9.79844
1 16.5972 5.39518 9.84398
1 18.1748 6.18898 10.6199
1 18.9685 5.39528 10.6199
1 18.9843 6.1913 9.8309
1 18.1646 5.40337 9.82812
1 19.7622 6.18898 10.6199
1 20.5559 5.39528 10.6199
1 20.5485 6.18667 9.81997
1 19.7752 5.41029 9.8317
1 21.3496 6.18898 10.6199
1 22.1433 5.39528 10.6199
1 22.1746 6.17894 9.83935
1 21.3456 5.395 9.83142