LAMMPS (5 Jun 2019)
OMP_NUM_THREADS environment is not set. Defaulting to 1 thread. (src/comm.cpp:88)
  using 1 OpenMP thread(s) per MPI task
#--- Brush Variables---#
variable      f      equal  1                  # System Size Scaling Factor
variable      M      equal  $(v_f * 60)        # The number of polymer chains on each brush
variable      M      equal  60        
variable      N      string 30                 # The number of beads per chain
variable      xhi    equal  $(sqrt(v_f) * 30)  # The width of the polymer Brush
variable      xhi    equal  30  
variable      yhi    equal  $(sqrt(v_f) * 30)   # The length of the polymer Brush
variable      yhi    equal  30   
variable      wthick equal  3                  # The thickness of the walls wthick=1,2,3,4 gives 2,3,4,6 layers respectively

#--- Simulation Variables ---#
variable       Temp      index 1               # The Temperature of the Thermostats
variable       Tstep     equal 0.005           # Timestep in Tau (default = 0.005)
variable       Nequil    equal 300000          # Number of timesteps to equilibrate
variable       Ncomp     equal 700000          # Number of timesteps to compress - until no more oscillation of D
variable       Nshear    equal 4000000         # Number of timesteps to shear
variable       Nthermo   equal 1000            # Number of timesteps between thermo data prints
variable       Ndump_e   equal 10000
variable       Ndump_c   equal 10000           # Number of timesteps per dump file (compression)
variable       Ndump_s   equal 10000           # Number of timesteps per dump file (shear)
variable       Vwalli    index 0.01 0.5 1 1.5 2 5 10          # Relative wall Velocities
variable       Pcomp     index 1 # 0.5 2 0.05 4 8                               # Compressive Pressures applied to top wall
variable       Vscale    equal 1e-1

include        MDPBB.in
# This is an input script that creates a mono disperse polymer brush bilayer
# A coarse grained bead-spring model is used for the polymers which are end
# grafted to the surfaces of 2 opposing FCC walls at random sites.

#--- Initialization ---#

dimension     3
boundary      p p f
units         lj
atom_style    bond


#--- Moved to main.in ---#
#variable      M      equal  50                # The number of polymer chains on each brush
#variable      N      string 80                # The number of beads per chain
#variable      xhi    equal  15                # The width of the polymer Brush
#variable      yhi    equal  20                # The length of the polymer Brush
#variable      wthick equal  3                 # The thickness of the walls wthick=1,2,3,4 gives 2,3,4,6 layers respectively

variable      zhi    equal  $(1.1 * 2 * v_N + (2 * v_wthick))  # The initial height of the simulation box the value is such that no overlaps occur
variable      zhi    equal  72  
variable      z0     equal  $((v_zhi)/4 - (v_N)/30)          # This is the location at which to place the CoM of the molecule
variable      z0     equal  17          

print "The number of grafted chains = $(v_M)"
The number of grafted chains = 60
print "The number of beads per chain = $(v_N)"
The number of beads per chain = 30

variable      check  equal count(all)         # The number of atoms in the system
variable      ntwall equal count(twall)       # The number of atoms in the top wall
variable      nbwall equal count(bwall)       # The number of atoms in the bottom wall
variable      s equal 234897  #45335              # Seed for the RNG

print "zhi = ${zhi}"
zhi = 72

#--- Create the simulation box ---#

region        sbox block 0 ${xhi} 0 ${yhi} 0 ${zhi}
region        sbox block 0 30 0 ${yhi} 0 ${zhi}
region        sbox block 0 30 0 30 0 ${zhi}
region        sbox block 0 30 0 30 0 72
create_box    4 sbox bond/types 3 extra/bond/per/atom 12 extra/special/per/atom 2
Created orthogonal box = (0 0 0) to (30 30 72)
  1 by 1 by 1 MPI processor grid

mass          1 2.0                   # Wall atoms that are not grafted
mass          2 1.0                   # Grafted bead
mass          3 1.0                   # The rest of the beads on the chain
mass          4 2.0                   # Wall atoms that the chains are grafted to

bond_style    hybrid fene harmonic    # Finitely extensible linearly elastic bond between neighbouring beads
#bond_coeff    1 fene 30.0 1.5 0.0 0.0      # Values obtained from literature [Grest, Galushcko]
bond_coeff    1 fene 30.0 30.0 0.0 0.0
bond_coeff    2 fene 30.0 30.0 0.0 0.0       # This is the grafting bond between the polymer and the wall atom
special_bonds fene                    #
  0 = max # of 1-2 neighbors
  5 = max # of special neighbors
  special bonds CPU = 0.0002836 secs
pair_style	  lj/cut 1.122462         # LJ potential with rc=2^1/6
#pair_coeff	  * * 1.0 1.0             # LJ potential acts between all atoms
pair_coeff    1 1 0.0 0.0
pair_coeff    1 2 1.0 1.0
pair_coeff    1 3 1.0 1.0
pair_coeff    2 2 1.0 1.0
pair_coeff    2 3 1.0 1.0
pair_coeff    2 4 1.0 1.0
pair_coeff    3 3 1.0 1.0
pair_coeff    3 4 1.0 1.0
pair_coeff    4 4 0.0 0.0
neighbor      10 bin                  #
neigh_modify  one 4000

#--- Create and read the molecule file ---#
python        BSMolf input 1 $N format i file BSMolf.py
python        BSMolf input 1 30 format i file BSMolf.py
python        BSMolf invoke    # Call the python function with number of beads to write the mol file
molecule      bs     bsmol.txt     # Read the Mol file to define the polymer chain
Read molecule bs:
  30 atoms with max type 2
  29 bonds with max type 1
  0 angles with max type 0
  0 dihedrals with max type 0
  0 impropers with max type 0

#--- Define the FCC wall region ---#
region        wall  block 0 ${xhi} 0 ${yhi} 0 ${wthick}
region        wall  block 0 30 0 ${yhi} 0 ${wthick}
region        wall  block 0 30 0 30 0 ${wthick}
region        wall  block 0 30 0 30 0 3
lattice       fcc 1
Lattice spacing in x,y,z = 1.5874 1.5874 1.5874

#--- Create the Top Brush  (At the bottom then rotate 180 degrees to top) ---#

create_atoms  1 region wall
Created 2888 atoms
  create_atoms CPU = 0.0015039 secs
group         twall  region wall
2888 atoms in group twall
#group         tsurf  region wsurf

# A loop to insert the Chains into the sim box
variable      i loop $M                                   # Index to insert N total number of chains
variable      i loop 60                                   
label         loop                                        # Start of loop
variable      randni equal round(random(1,${ntwall},$s))  # Pick a random "top" wall atom
variable      randni equal round(random(1,2888,$s))  
variable      randni equal round(random(1,2888,234897))  
variable      randatomi equal ${randni}                   # This is to obtain an integer number for atom-id
variable      randatomi equal 1814                   
variable      randzi equal z[${randatomi}]                # Determine the z coordinate of the chosen atom
variable      randzi equal z[1814]                
# if the chosen atom is not a surface atom then restart the loop
if            "${randzi} < $(v_wthick - 0.7)" then "jump MDPBB.in loop"
jump MDPBB.in loop
variable      randni equal round(random(1,${ntwall},$s))  # Pick a random "top" wall atom
variable      randni equal round(random(1,2888,$s))  
variable      randni equal round(random(1,2888,234897))  
variable      randatomi equal ${randni}                   # This is to obtain an integer number for atom-id
variable      randatomi equal 455                   
variable      randzi equal z[${randatomi}]                # Determine the z coordinate of the chosen atom
variable      randzi equal z[455]                
# if the chosen atom is not a surface atom then restart the loop
if            "${randzi} < $(v_wthick - 0.7)" then "jump MDPBB.in loop"
jump MDPBB.in loop
variable      randni equal round(random(1,${ntwall},$s))  # Pick a random "top" wall atom
variable      randni equal round(random(1,2888,$s))  
variable      randni equal round(random(1,2888,234897))  
variable      randatomi equal ${randni}                   # This is to obtain an integer number for atom-id
variable      randatomi equal 2182                   
variable      randzi equal z[${randatomi}]                # Determine the z coordinate of the chosen atom
variable      randzi equal z[2182]                
# if the chosen atom is not a surface atom then restart the loop
if            "${randzi} < $(v_wthick - 0.7)" then "jump MDPBB.in loop"
jump MDPBB.in loop
variable      randni equal round(random(1,${ntwall},$s))  # Pick a random "top" wall atom
variable      randni equal round(random(1,2888,$s))  
variable      randni equal round(random(1,2888,234897))  
variable      randatomi equal ${randni}                   # This is to obtain an integer number for atom-id
variable      randatomi equal 2201                   
variable      randzi equal z[${randatomi}]                # Determine the z coordinate of the chosen atom
variable      randzi equal z[2201]                
# if the chosen atom is not a surface atom then restart the loop
if            "${randzi} < $(v_wthick - 0.7)" then "jump MDPBB.in loop"
jump MDPBB.in loop
variable      randni equal round(random(1,${ntwall},$s))  # Pick a random "top" wall atom
variable      randni equal round(random(1,2888,$s))  
variable      randni equal round(random(1,2888,234897))  
variable      randatomi equal ${randni}                   # This is to obtain an integer number for atom-id
variable      randatomi equal 2098                   
variable      randzi equal z[${randatomi}]                # Determine the z coordinate of the chosen atom
variable      randzi equal z[2098]                
# if the chosen atom is not a surface atom then restart the loop
if            "${randzi} < $(v_wthick - 0.7)" then "jump MDPBB.in loop"
jump MDPBB.in loop
variable      randni equal round(random(1,${ntwall},$s))  # Pick a random "top" wall atom
variable      randni equal round(random(1,2888,$s))  
variable      randni equal round(random(1,2888,234897))  
variable      randatomi equal ${randni}                   # This is to obtain an integer number for atom-id
variable      randatomi equal 2845                   
variable      randzi equal z[${randatomi}]                # Determine the z coordinate of the chosen atom
variable      randzi equal z[2845]                
# if the chosen atom is not a surface atom then restart the loop
if            "${randzi} < $(v_wthick - 0.7)" then "jump MDPBB.in loop"
jump MDPBB.in loop
variable      randni equal round(random(1,${ntwall},$s))  # Pick a random "top" wall atom
variable      randni equal round(random(1,2888,$s))  
variable      randni equal round(random(1,2888,234897))  
variable      randatomi equal ${randni}                   # This is to obtain an integer number for atom-id
variable      randatomi equal 1373                   
variable      randzi equal z[${randatomi}]                # Determine the z coordinate of the chosen atom
variable      randzi equal z[1373]                
# if the chosen atom is not a surface atom then restart the loop
if            "${randzi} < $(v_wthick - 0.7)" then "jump MDPBB.in loop"
jump MDPBB.in loop
variable      randni equal round(random(1,${ntwall},$s))  # Pick a random "top" wall atom
variable      randni equal round(random(1,2888,$s))  
variable      randni equal round(random(1,2888,234897))  
variable      randatomi equal ${randni}                   # This is to obtain an integer number for atom-id
variable      randatomi equal 968                   
variable      randzi equal z[${randatomi}]                # Determine the z coordinate of the chosen atom
variable      randzi equal z[968]                
# if the chosen atom is not a surface atom then restart the loop
if            "${randzi} < $(v_wthick - 0.7)" then "jump MDPBB.in loop"
jump MDPBB.in loop
variable      randni equal round(random(1,${ntwall},$s))  # Pick a random "top" wall atom
variable      randni equal round(random(1,2888,$s))  
variable      randni equal round(random(1,2888,234897))  
variable      randatomi equal ${randni}                   # This is to obtain an integer number for atom-id
variable      randatomi equal 1250                   
variable      randzi equal z[${randatomi}]                # Determine the z coordinate of the chosen atom
variable      randzi equal z[1250]                
# if the chosen atom is not a surface atom then restart the loop
if            "${randzi} < $(v_wthick - 0.7)" then "jump MDPBB.in loop"
jump MDPBB.in loop
variable      randni equal round(random(1,${ntwall},$s))  # Pick a random "top" wall atom
variable      randni equal round(random(1,2888,$s))  
variable      randni equal round(random(1,2888,234897))  
variable      randatomi equal ${randni}                   # This is to obtain an integer number for atom-id
variable      randatomi equal 2090                   
variable      randzi equal z[${randatomi}]                # Determine the z coordinate of the chosen atom
variable      randzi equal z[2090]                
# if the chosen atom is not a surface atom then restart the loop
if            "${randzi} < $(v_wthick - 0.7)" then "jump MDPBB.in loop"
jump MDPBB.in loop
variable      randni equal round(random(1,${ntwall},$s))  # Pick a random "top" wall atom
variable      randni equal round(random(1,2888,$s))  
variable      randni equal round(random(1,2888,234897))  
variable      randatomi equal ${randni}                   # This is to obtain an integer number for atom-id
variable      randatomi equal 2586                   
variable      randzi equal z[${randatomi}]                # Determine the z coordinate of the chosen atom
variable      randzi equal z[2586]                
# if the chosen atom is not a surface atom then restart the loop
if            "${randzi} < $(v_wthick - 0.7)" then "jump MDPBB.in loop"
jump MDPBB.in loop
variable      randni equal round(random(1,${ntwall},$s))  # Pick a random "top" wall atom
variable      randni equal round(random(1,2888,$s))  
variable      randni equal round(random(1,2888,234897))  
variable      randatomi equal ${randni}                   # This is to obtain an integer number for atom-id
variable      randatomi equal 21                   
variable      randzi equal z[${randatomi}]                # Determine the z coordinate of the chosen atom
variable      randzi equal z[21]                
# if the chosen atom is not a surface atom then restart the loop
if            "${randzi} < $(v_wthick - 0.7)" then "jump MDPBB.in loop"
jump MDPBB.in loop
variable      randni equal round(random(1,${ntwall},$s))  # Pick a random "top" wall atom
variable      randni equal round(random(1,2888,$s))  
variable      randni equal round(random(1,2888,234897))  
variable      randatomi equal ${randni}                   # This is to obtain an integer number for atom-id
variable      randatomi equal 550                   
variable      randzi equal z[${randatomi}]                # Determine the z coordinate of the chosen atom
variable      randzi equal z[550]                
# if the chosen atom is not a surface atom then restart the loop
if            "${randzi} < $(v_wthick - 0.7)" then "jump MDPBB.in loop"
jump MDPBB.in loop
variable      randni equal round(random(1,${ntwall},$s))  # Pick a random "top" wall atom
variable      randni equal round(random(1,2888,$s))  
variable      randni equal round(random(1,2888,234897))  
variable      randatomi equal ${randni}                   # This is to obtain an integer number for atom-id
variable      randatomi equal 944                   
variable      randzi equal z[${randatomi}]                # Determine the z coordinate of the chosen atom
variable      randzi equal z[944]                
# if the chosen atom is not a surface atom then restart the loop
if            "${randzi} < $(v_wthick - 0.7)" then "jump MDPBB.in loop"
jump MDPBB.in loop
variable      randni equal round(random(1,${ntwall},$s))  # Pick a random "top" wall atom
variable      randni equal round(random(1,2888,$s))  
variable      randni equal round(random(1,2888,234897))  
variable      randatomi equal ${randni}                   # This is to obtain an integer number for atom-id
variable      randatomi equal 2340                   
variable      randzi equal z[${randatomi}]                # Determine the z coordinate of the chosen atom
variable      randzi equal z[2340]                
# if the chosen atom is not a surface atom then restart the loop
if            "${randzi} < $(v_wthick - 0.7)" then "jump MDPBB.in loop"
set           atom ${randatomi} type 4                    # Set this grafted wall atom as a new type
set           atom 2340 type 4                    
  1 settings made for type
group         twg id ${randatomi}                         # Add this atom to a top-wall-grafted group
group         twg id 2340                         
1 atoms in group twg
variable      twgcount equal count(twg)
print         "twg contains ${twgcount}"
twg contains 1
print         "i = $(v_i)"                                # The index i should always be equal to the number of atom in twg
i = 1
variable      x0 equal x[${randatomi}]                    # Determine its x-coord
variable      x0 equal x[2340]                    
variable      y0 equal y[${randatomi}]                    # Determine its y-coord
variable      y0 equal y[2340]                    
variable      check0 equal ${check}                       # Count the number of atoms in the simulation
variable      check0 equal 2888                       
variable      b equal ${check}+1                          # The grafted bead id will be one higher after being inserted
variable      b equal 2888+1                          
if            "${twgcount} != $(v_i)" then "jump MDPBB.in loop"
# Otherwise insert the chain directly above the chosen wall atom pointing perpendicular to the wall
create_atoms  1 single ${x0} ${y0} ${z0} mol bs 24987 units box remap yes rotate 0 0 0 1
create_atoms  1 single 22.2236147275548 ${y0} ${z0} mol bs 24987 units box remap yes rotate 0 0 0 1
create_atoms  1 single 22.2236147275548 18.2551120976343 ${z0} mol bs 24987 units box remap yes rotate 0 0 0 1
create_atoms  1 single 22.2236147275548 18.2551120976343 17 mol bs 24987 units box remap yes rotate 0 0 0 1
Created 30 atoms
  create_atoms CPU = 0.0001364 secs
variable      check1 equal ${check}               # Count the new total number of atoms
variable      check1 equal 2918               
# Check that the molecule has indeed been inserted (This check is no longer an issue).
if            "${check1} != ${check0}" then "create_bonds  single/bond 2 ${randatomi} $b" "next i"
create_bonds  single/bond 2 ${randatomi} $b
create_bonds  single/bond 2 2340 $b
create_bonds  single/bond 2 2340 2889
  2 = max # of 1-2 neighbors
  5 = max # of special neighbors
  special bonds CPU = 0.002772 secs
next i
jump MDPBB.in loop    # End of the loop
variable      randni equal round(random(1,${ntwall},$s))  # Pick a random "top" wall atom
variable      randni equal round(random(1,2888,$s))  
variable      randni equal round(random(1,2888,234897))  
variable      randatomi equal ${randni}                   # This is to obtain an integer number for atom-id
variable      randatomi equal 2049                   
variable      randzi equal z[${randatomi}]                # Determine the z coordinate of the chosen atom
variable      randzi equal z[2049]                
# if the chosen atom is not a surface atom then restart the loop
if            "${randzi} < $(v_wthick - 0.7)" then "jump MDPBB.in loop"
jump MDPBB.in loop
variable      randni equal round(random(1,${ntwall},$s))  # Pick a random "top" wall atom
variable      randni equal round(random(1,2888,$s))  
variable      randni equal round(random(1,2888,234897))  
variable      randatomi equal ${randni}                   # This is to obtain an integer number for atom-id
variable      randatomi equal 1989                   
variable      randzi equal z[${randatomi}]                # Determine the z coordinate of the chosen atom
variable      randzi equal z[1989]                
# if the chosen atom is not a surface atom then restart the loop
if            "${randzi} < $(v_wthick - 0.7)" then "jump MDPBB.in loop"
jump MDPBB.in loop
variable      randni equal round(random(1,${ntwall},$s))  # Pick a random "top" wall atom
variable      randni equal round(random(1,2888,$s))  
variable      randni equal round(random(1,2888,234897))  
variable      randatomi equal ${randni}                   # This is to obtain an integer number for atom-id
variable      randatomi equal 1613                   
variable      randzi equal z[${randatomi}]                # Determine the z coordinate of the chosen atom
variable      randzi equal z[1613]                
# if the chosen atom is not a surface atom then restart the loop
if            "${randzi} < $(v_wthick - 0.7)" then "jump MDPBB.in loop"
jump MDPBB.in loop
variable      randni equal round(random(1,${ntwall},$s))  # Pick a random "top" wall atom
variable      randni equal round(random(1,2888,$s))  
variable      randni equal round(random(1,2888,234897))  
variable      randatomi equal ${randni}                   # This is to obtain an integer number for atom-id
variable      randatomi equal 2250                   
variable      randzi equal z[${randatomi}]                # Determine the z coordinate of the chosen atom
variable      randzi equal z[2250]                
# if the chosen atom is not a surface atom then restart the loop
if            "${randzi} < $(v_wthick - 0.7)" then "jump MDPBB.in loop"
jump MDPBB.in loop
variable      randni equal round(random(1,${ntwall},$s))  # Pick a random "top" wall atom
variable      randni equal round(random(1,2888,$s))  
variable      randni equal round(random(1,2888,234897))  
variable      randatomi equal ${randni}                   # This is to obtain an integer number for atom-id
variable      randatomi equal 1777                   
variable      randzi equal z[${randatomi}]                # Determine the z coordinate of the chosen atom
variable      randzi equal z[1777]                
# if the chosen atom is not a surface atom then restart the loop
if            "${randzi} < $(v_wthick - 0.7)" then "jump MDPBB.in loop"
jump MDPBB.in loop
variable      randni equal round(random(1,${ntwall},$s))  # Pick a random "top" wall atom
variable      randni equal round(random(1,2888,$s))  
variable      randni equal round(random(1,2888,234897))  
variable      randatomi equal ${randni}                   # This is to obtain an integer number for atom-id
variable      randatomi equal 1790                   
variable      randzi equal z[${randatomi}]                # Determine the z coordinate of the chosen atom
variable      randzi equal z[1790]                
# if the chosen atom is not a surface atom then restart the loop
if            "${randzi} < $(v_wthick - 0.7)" then "jump MDPBB.in loop"
jump MDPBB.in loop
variable      randni equal round(random(1,${ntwall},$s))  # Pick a random "top" wall atom
variable      randni equal round(random(1,2888,$s))  
variable      randni equal round(random(1,2888,234897))  
variable      randatomi equal ${randni}                   # This is to obtain an integer number for atom-id
variable      randatomi equal 346                   
variable      randzi equal z[${randatomi}]                # Determine the z coordinate of the chosen atom
variable      randzi equal z[346]                
# if the chosen atom is not a surface atom then restart the loop
if            "${randzi} < $(v_wthick - 0.7)" then "jump MDPBB.in loop"
jump MDPBB.in loop
variable      randni equal round(random(1,${ntwall},$s))  # Pick a random "top" wall atom
variable      randni equal round(random(1,2888,$s))  
variable      randni equal round(random(1,2888,234897))  
variable      randatomi equal ${randni}                   # This is to obtain an integer number for atom-id
variable      randatomi equal 2515                   
variable      randzi equal z[${randatomi}]                # Determine the z coordinate of the chosen atom
variable      randzi equal z[2515]                
# if the chosen atom is not a surface atom then restart the loop
if            "${randzi} < $(v_wthick - 0.7)" then "jump MDPBB.in loop"
set           atom ${randatomi} type 4                    # Set this grafted wall atom as a new type
set           atom 2515 type 4                    
  1 settings made for type
group         twg id ${randatomi}                         # Add this atom to a top-wall-grafted group
group         twg id 2515                         
2 atoms in group twg
variable      twgcount equal count(twg)
print         "twg contains ${twgcount}"
twg contains 2
print         "i = $(v_i)"                                # The index i should always be equal to the number of atom in twg
i = 2
variable      x0 equal x[${randatomi}]                    # Determine its x-coord
variable      x0 equal x[2515]                    
variable      y0 equal y[${randatomi}]                    # Determine its y-coord
variable      y0 equal y[2515]                    
variable      check0 equal ${check}                       # Count the number of atoms in the simulation
variable      check0 equal 2918                       
variable      b equal ${check}+1                          # The grafted bead id will be one higher after being inserted
variable      b equal 2918+1                          
if            "${twgcount} != $(v_i)" then "jump MDPBB.in loop"
# Otherwise insert the chain directly above the chosen wall atom pointing perpendicular to the wall
create_atoms  1 single ${x0} ${y0} ${z0} mol bs 24987 units box remap yes rotate 0 0 0 1
create_atoms  1 single 2.3811015779523 ${y0} ${z0} mol bs 24987 units box remap yes rotate 0 0 0 1
create_atoms  1 single 2.3811015779523 22.2236147275548 ${z0} mol bs 24987 units box remap yes rotate 0 0 0 1
create_atoms  1 single 2.3811015779523 22.2236147275548 17 mol bs 24987 units box remap yes rotate 0 0 0 1
Created 30 atoms
  create_atoms CPU = 7.56e-05 secs
variable      check1 equal ${check}               # Count the new total number of atoms
variable      check1 equal 2948               
# Check that the molecule has indeed been inserted (This check is no longer an issue).
if            "${check1} != ${check0}" then "create_bonds  single/bond 2 ${randatomi} $b" "next i"
create_bonds  single/bond 2 ${randatomi} $b
create_bonds  single/bond 2 2515 $b
create_bonds  single/bond 2 2515 2919
  2 = max # of 1-2 neighbors
  5 = max # of special neighbors
  special bonds CPU = 0.0025016 secs
next i
jump MDPBB.in loop    # End of the loop
variable      randni equal round(random(1,${ntwall},$s))  # Pick a random "top" wall atom
variable      randni equal round(random(1,2888,$s))  
variable      randni equal round(random(1,2888,234897))  
variable      randatomi equal ${randni}                   # This is to obtain an integer number for atom-id
variable      randatomi equal 1738                   
variable      randzi equal z[${randatomi}]                # Determine the z coordinate of the chosen atom
variable      randzi equal z[1738]                
# if the chosen atom is not a surface atom then restart the loop
if            "${randzi} < $(v_wthick - 0.7)" then "jump MDPBB.in loop"
jump MDPBB.in loop
variable      randni equal round(random(1,${ntwall},$s))  # Pick a random "top" wall atom
variable      randni equal round(random(1,2888,$s))  
variable      randni equal round(random(1,2888,234897))  
variable      randatomi equal ${randni}                   # This is to obtain an integer number for atom-id
variable      randatomi equal 2654                   
variable      randzi equal z[${randatomi}]                # Determine the z coordinate of the chosen atom
variable      randzi equal z[2654]                
# if the chosen atom is not a surface atom then restart the loop
if            "${randzi} < $(v_wthick - 0.7)" then "jump MDPBB.in loop"
jump MDPBB.in loop
variable      randni equal round(random(1,${ntwall},$s))  # Pick a random "top" wall atom
variable      randni equal round(random(1,2888,$s))  
variable      randni equal round(random(1,2888,234897))  
variable      randatomi equal ${randni}                   # This is to obtain an integer number for atom-id
variable      randatomi equal 2013                   
variable      randzi equal z[${randatomi}]                # Determine the z coordinate of the chosen atom
variable      randzi equal z[2013]                
# if the chosen atom is not a surface atom then restart the loop
if            "${randzi} < $(v_wthick - 0.7)" then "jump MDPBB.in loop"
jump MDPBB.in loop
variable      randni equal round(random(1,${ntwall},$s))  # Pick a random "top" wall atom
variable      randni equal round(random(1,2888,$s))  
variable      randni equal round(random(1,2888,234897))  
variable      randatomi equal ${randni}                   # This is to obtain an integer number for atom-id
variable      randatomi equal 2593                   
variable      randzi equal z[${randatomi}]                # Determine the z coordinate of the chosen atom
variable      randzi equal z[2593]                
# if the chosen atom is not a surface atom then restart the loop
if            "${randzi} < $(v_wthick - 0.7)" then "jump MDPBB.in loop"
jump MDPBB.in loop
variable      randni equal round(random(1,${ntwall},$s))  # Pick a random "top" wall atom
variable      randni equal round(random(1,2888,$s))  
variable      randni equal round(random(1,2888,234897))  
variable      randatomi equal ${randni}                   # This is to obtain an integer number for atom-id
variable      randatomi equal 1699                   
variable      randzi equal z[${randatomi}]                # Determine the z coordinate of the chosen atom
variable      randzi equal z[1699]                
# if the chosen atom is not a surface atom then restart the loop
if            "${randzi} < $(v_wthick - 0.7)" then "jump MDPBB.in loop"
set           atom ${randatomi} type 4                    # Set this grafted wall atom as a new type
set           atom 1699 type 4                    
  1 settings made for type
group         twg id ${randatomi}                         # Add this atom to a top-wall-grafted group
group         twg id 1699                         
3 atoms in group twg
variable      twgcount equal count(twg)
print         "twg contains ${twgcount}"
twg contains 3
print         "i = $(v_i)"                                # The index i should always be equal to the number of atom in twg
i = 3
variable      x0 equal x[${randatomi}]                    # Determine its x-coord
variable      x0 equal x[1699]                    
variable      y0 equal y[${randatomi}]                    # Determine its y-coord
variable      y0 equal y[1699]                    
variable      check0 equal ${check}                       # Count the number of atoms in the simulation
variable      check0 equal 2948                       
variable      b equal ${check}+1                          # The grafted bead id will be one higher after being inserted
variable      b equal 2948+1                          
if            "${twgcount} != $(v_i)" then "jump MDPBB.in loop"
# Otherwise insert the chain directly above the chosen wall atom pointing perpendicular to the wall
create_atoms  1 single ${x0} ${y0} ${z0} mol bs 24987 units box remap yes rotate 0 0 0 1
create_atoms  1 single 10.3181068377933 ${y0} ${z0} mol bs 24987 units box remap yes rotate 0 0 0 1
create_atoms  1 single 10.3181068377933 4.7622031559046 ${z0} mol bs 24987 units box remap yes rotate 0 0 0 1
create_atoms  1 single 10.3181068377933 4.7622031559046 17 mol bs 24987 units box remap yes rotate 0 0 0 1
Created 30 atoms
  create_atoms CPU = 8.86e-05 secs
variable      check1 equal ${check}               # Count the new total number of atoms
variable      check1 equal 2978               
# Check that the molecule has indeed been inserted (This check is no longer an issue).
if            "${check1} != ${check0}" then "create_bonds  single/bond 2 ${randatomi} $b" "next i"
create_bonds  single/bond 2 ${randatomi} $b
create_bonds  single/bond 2 1699 $b
create_bonds  single/bond 2 1699 2949
  2 = max # of 1-2 neighbors
  5 = max # of special neighbors
  special bonds CPU = 0.0027259 secs
next i
jump MDPBB.in loop    # End of the loop
variable      randni equal round(random(1,${ntwall},$s))  # Pick a random "top" wall atom
variable      randni equal round(random(1,2888,$s))  
variable      randni equal round(random(1,2888,234897))  
variable      randatomi equal ${randni}                   # This is to obtain an integer number for atom-id
variable      randatomi equal 2456                   
variable      randzi equal z[${randatomi}]                # Determine the z coordinate of the chosen atom
variable      randzi equal z[2456]                
# if the chosen atom is not a surface atom then restart the loop
if            "${randzi} < $(v_wthick - 0.7)" then "jump MDPBB.in loop"
set           atom ${randatomi} type 4                    # Set this grafted wall atom as a new type
set           atom 2456 type 4                    
  1 settings made for type
group         twg id ${randatomi}                         # Add this atom to a top-wall-grafted group
group         twg id 2456                         
4 atoms in group twg
variable      twgcount equal count(twg)
print         "twg contains ${twgcount}"
twg contains 4
print         "i = $(v_i)"                                # The index i should always be equal to the number of atom in twg
i = 4
variable      x0 equal x[${randatomi}]                    # Determine its x-coord
variable      x0 equal x[2456]                    
variable      y0 equal y[${randatomi}]                    # Determine its y-coord
variable      y0 equal y[2456]                    
variable      check0 equal ${check}                       # Count the number of atoms in the simulation
variable      check0 equal 2978                       
variable      b equal ${check}+1                          # The grafted bead id will be one higher after being inserted
variable      b equal 2978+1                          
if            "${twgcount} != $(v_i)" then "jump MDPBB.in loop"
# Otherwise insert the chain directly above the chosen wall atom pointing perpendicular to the wall
create_atoms  1 single ${x0} ${y0} ${z0} mol bs 24987 units box remap yes rotate 0 0 0 1
create_atoms  1 single 7.937005259841 ${y0} ${z0} mol bs 24987 units box remap yes rotate 0 0 0 1
create_atoms  1 single 7.937005259841 21.4299142015707 ${z0} mol bs 24987 units box remap yes rotate 0 0 0 1
create_atoms  1 single 7.937005259841 21.4299142015707 17 mol bs 24987 units box remap yes rotate 0 0 0 1
Created 30 atoms
  create_atoms CPU = 0.00012 secs
variable      check1 equal ${check}               # Count the new total number of atoms
variable      check1 equal 3008               
# Check that the molecule has indeed been inserted (This check is no longer an issue).
if            "${check1} != ${check0}" then "create_bonds  single/bond 2 ${randatomi} $b" "next i"
create_bonds  single/bond 2 ${randatomi} $b
create_bonds  single/bond 2 2456 $b
create_bonds  single/bond 2 2456 2979
  2 = max # of 1-2 neighbors
  5 = max # of special neighbors
  special bonds CPU = 0.0042226 secs
next i
jump MDPBB.in loop    # End of the loop
variable      randni equal round(random(1,${ntwall},$s))  # Pick a random "top" wall atom
variable      randni equal round(random(1,2888,$s))  
variable      randni equal round(random(1,2888,234897))  
variable      randatomi equal ${randni}                   # This is to obtain an integer number for atom-id
variable      randatomi equal 2420                   
variable      randzi equal z[${randatomi}]                # Determine the z coordinate of the chosen atom
variable      randzi equal z[2420]                
# if the chosen atom is not a surface atom then restart the loop
if            "${randzi} < $(v_wthick - 0.7)" then "jump MDPBB.in loop"
set           atom ${randatomi} type 4                    # Set this grafted wall atom as a new type
set           atom 2420 type 4                    
  1 settings made for type
group         twg id ${randatomi}                         # Add this atom to a top-wall-grafted group
group         twg id 2420                         
5 atoms in group twg
variable      twgcount equal count(twg)
print         "twg contains ${twgcount}"
twg contains 5
print         "i = $(v_i)"                                # The index i should always be equal to the number of atom in twg
i = 5
variable      x0 equal x[${randatomi}]                    # Determine its x-coord
variable      x0 equal x[2420]                    
variable      y0 equal y[${randatomi}]                    # Determine its y-coord
variable      y0 equal y[2420]                    
variable      check0 equal ${check}                       # Count the number of atoms in the simulation
variable      check0 equal 3008                       
variable      b equal ${check}+1                          # The grafted bead id will be one higher after being inserted
variable      b equal 3008+1                          
if            "${twgcount} != $(v_i)" then "jump MDPBB.in loop"
# Otherwise insert the chain directly above the chosen wall atom pointing perpendicular to the wall
create_atoms  1 single ${x0} ${y0} ${z0} mol bs 24987 units box remap yes rotate 0 0 0 1
create_atoms  1 single 23.811015779523 ${y0} ${z0} mol bs 24987 units box remap yes rotate 0 0 0 1
create_atoms  1 single 23.811015779523 19.8425131496025 ${z0} mol bs 24987 units box remap yes rotate 0 0 0 1
create_atoms  1 single 23.811015779523 19.8425131496025 17 mol bs 24987 units box remap yes rotate 0 0 0 1
Created 30 atoms
  create_atoms CPU = 8.93e-05 secs
variable      check1 equal ${check}               # Count the new total number of atoms
variable      check1 equal 3038               
# Check that the molecule has indeed been inserted (This check is no longer an issue).
if            "${check1} != ${check0}" then "create_bonds  single/bond 2 ${randatomi} $b" "next i"
create_bonds  single/bond 2 ${randatomi} $b
create_bonds  single/bond 2 2420 $b
create_bonds  single/bond 2 2420 3009
  2 = max # of 1-2 neighbors
  5 = max # of special neighbors
  special bonds CPU = 0.0027086 secs
next i
jump MDPBB.in loop    # End of the loop
variable      randni equal round(random(1,${ntwall},$s))  # Pick a random "top" wall atom
variable      randni equal round(random(1,2888,$s))  
variable      randni equal round(random(1,2888,234897))  
variable      randatomi equal ${randni}                   # This is to obtain an integer number for atom-id
variable      randatomi equal 1201                   
variable      randzi equal z[${randatomi}]                # Determine the z coordinate of the chosen atom
variable      randzi equal z[1201]                
# if the chosen atom is not a surface atom then restart the loop
if            "${randzi} < $(v_wthick - 0.7)" then "jump MDPBB.in loop"
jump MDPBB.in loop
variable      randni equal round(random(1,${ntwall},$s))  # Pick a random "top" wall atom
variable      randni equal round(random(1,2888,$s))  
variable      randni equal round(random(1,2888,234897))  
variable      randatomi equal ${randni}                   # This is to obtain an integer number for atom-id
variable      randatomi equal 2884                   
variable      randzi equal z[${randatomi}]                # Determine the z coordinate of the chosen atom
variable      randzi equal z[2884]                
# if the chosen atom is not a surface atom then restart the loop
if            "${randzi} < $(v_wthick - 0.7)" then "jump MDPBB.in loop"
set           atom ${randatomi} type 4                    # Set this grafted wall atom as a new type
set           atom 2884 type 4                    
  1 settings made for type
group         twg id ${randatomi}                         # Add this atom to a top-wall-grafted group
group         twg id 2884                         
6 atoms in group twg
variable      twgcount equal count(twg)
print         "twg contains ${twgcount}"
twg contains 6
print         "i = $(v_i)"                                # The index i should always be equal to the number of atom in twg
i = 6
variable      x0 equal x[${randatomi}]                    # Determine its x-coord
variable      x0 equal x[2884]                    
variable      y0 equal y[${randatomi}]                    # Determine its y-coord
variable      y0 equal y[2884]                    
variable      check0 equal ${check}                       # Count the number of atoms in the simulation
variable      check0 equal 3038                       
variable      b equal ${check}+1                          # The grafted bead id will be one higher after being inserted
variable      b equal 3038+1                          
if            "${twgcount} != $(v_i)" then "jump MDPBB.in loop"
# Otherwise insert the chain directly above the chosen wall atom pointing perpendicular to the wall
create_atoms  1 single ${x0} ${y0} ${z0} mol bs 24987 units box remap yes rotate 0 0 0 1
create_atoms  1 single 26.9858178834594 ${y0} ${z0} mol bs 24987 units box remap yes rotate 0 0 0 1
create_atoms  1 single 26.9858178834594 29.3669194614117 ${z0} mol bs 24987 units box remap yes rotate 0 0 0 1
create_atoms  1 single 26.9858178834594 29.3669194614117 17 mol bs 24987 units box remap yes rotate 0 0 0 1
Created 30 atoms
  create_atoms CPU = 8.65e-05 secs
variable      check1 equal ${check}               # Count the new total number of atoms
variable      check1 equal 3068               
# Check that the molecule has indeed been inserted (This check is no longer an issue).
if            "${check1} != ${check0}" then "create_bonds  single/bond 2 ${randatomi} $b" "next i"
create_bonds  single/bond 2 ${randatomi} $b
create_bonds  single/bond 2 2884 $b
create_bonds  single/bond 2 2884 3039
  2 = max # of 1-2 neighbors
  5 = max # of special neighbors
  special bonds CPU = 0.0048164 secs
next i
jump MDPBB.in loop    # End of the loop
variable      randni equal round(random(1,${ntwall},$s))  # Pick a random "top" wall atom
variable      randni equal round(random(1,2888,$s))  
variable      randni equal round(random(1,2888,234897))  
variable      randatomi equal ${randni}                   # This is to obtain an integer number for atom-id
variable      randatomi equal 2815                   
variable      randzi equal z[${randatomi}]                # Determine the z coordinate of the chosen atom
variable      randzi equal z[2815]                
# if the chosen atom is not a surface atom then restart the loop
if            "${randzi} < $(v_wthick - 0.7)" then "jump MDPBB.in loop"
set           atom ${randatomi} type 4                    # Set this grafted wall atom as a new type
set           atom 2815 type 4                    
  1 settings made for type
group         twg id ${randatomi}                         # Add this atom to a top-wall-grafted group
group         twg id 2815                         
7 atoms in group twg
variable      twgcount equal count(twg)
print         "twg contains ${twgcount}"
twg contains 7
print         "i = $(v_i)"                                # The index i should always be equal to the number of atom in twg
i = 7
variable      x0 equal x[${randatomi}]                    # Determine its x-coord
variable      x0 equal x[2815]                    
variable      y0 equal y[${randatomi}]                    # Determine its y-coord
variable      y0 equal y[2815]                    
variable      check0 equal ${check}                       # Count the number of atoms in the simulation
variable      check0 equal 3068                       
variable      b equal ${check}+1                          # The grafted bead id will be one higher after being inserted
variable      b equal 3068+1                          
if            "${twgcount} != $(v_i)" then "jump MDPBB.in loop"
# Otherwise insert the chain directly above the chosen wall atom pointing perpendicular to the wall
create_atoms  1 single ${x0} ${y0} ${z0} mol bs 24987 units box remap yes rotate 0 0 0 1
create_atoms  1 single 0.7937005259841 ${y0} ${z0} mol bs 24987 units box remap yes rotate 0 0 0 1
create_atoms  1 single 0.7937005259841 28.5732189354276 ${z0} mol bs 24987 units box remap yes rotate 0 0 0 1
create_atoms  1 single 0.7937005259841 28.5732189354276 17 mol bs 24987 units box remap yes rotate 0 0 0 1
Created 30 atoms
  create_atoms CPU = 0.0001206 secs
variable      check1 equal ${check}               # Count the new total number of atoms
variable      check1 equal 3098               
# Check that the molecule has indeed been inserted (This check is no longer an issue).
if            "${check1} != ${check0}" then "create_bonds  single/bond 2 ${randatomi} $b" "next i"
create_bonds  single/bond 2 ${randatomi} $b
create_bonds  single/bond 2 2815 $b
create_bonds  single/bond 2 2815 3069
  2 = max # of 1-2 neighbors
  5 = max # of special neighbors
  special bonds CPU = 0.0045635 secs
next i
jump MDPBB.in loop    # End of the loop
variable      randni equal round(random(1,${ntwall},$s))  # Pick a random "top" wall atom
variable      randni equal round(random(1,2888,$s))  
variable      randni equal round(random(1,2888,234897))  
variable      randatomi equal ${randni}                   # This is to obtain an integer number for atom-id
variable      randatomi equal 2092                   
variable      randzi equal z[${randatomi}]                # Determine the z coordinate of the chosen atom
variable      randzi equal z[2092]                
# if the chosen atom is not a surface atom then restart the loop
if            "${randzi} < $(v_wthick - 0.7)" then "jump MDPBB.in loop"
set           atom ${randatomi} type 4                    # Set this grafted wall atom as a new type
set           atom 2092 type 4                    
  1 settings made for type
group         twg id ${randatomi}                         # Add this atom to a top-wall-grafted group
group         twg id 2092                         
8 atoms in group twg
variable      twgcount equal count(twg)
print         "twg contains ${twgcount}"
twg contains 8
print         "i = $(v_i)"                                # The index i should always be equal to the number of atom in twg
i = 8
variable      x0 equal x[${randatomi}]                    # Determine its x-coord
variable      x0 equal x[2092]                    
variable      y0 equal y[${randatomi}]                    # Determine its y-coord
variable      y0 equal y[2092]                    
variable      check0 equal ${check}                       # Count the number of atoms in the simulation
variable      check0 equal 3098                       
variable      b equal ${check}+1                          # The grafted bead id will be one higher after being inserted
variable      b equal 3098+1                          
if            "${twgcount} != $(v_i)" then "jump MDPBB.in loop"
# Otherwise insert the chain directly above the chosen wall atom pointing perpendicular to the wall
create_atoms  1 single ${x0} ${y0} ${z0} mol bs 24987 units box remap yes rotate 0 0 0 1
create_atoms  1 single 14.2866094677138 ${y0} ${z0} mol bs 24987 units box remap yes rotate 0 0 0 1
create_atoms  1 single 14.2866094677138 13.4929089417297 ${z0} mol bs 24987 units box remap yes rotate 0 0 0 1
create_atoms  1 single 14.2866094677138 13.4929089417297 17 mol bs 24987 units box remap yes rotate 0 0 0 1
Created 30 atoms
  create_atoms CPU = 8.25e-05 secs
variable      check1 equal ${check}               # Count the new total number of atoms
variable      check1 equal 3128               
# Check that the molecule has indeed been inserted (This check is no longer an issue).
if            "${check1} != ${check0}" then "create_bonds  single/bond 2 ${randatomi} $b" "next i"
create_bonds  single/bond 2 ${randatomi} $b
create_bonds  single/bond 2 2092 $b
create_bonds  single/bond 2 2092 3099
  2 = max # of 1-2 neighbors
  5 = max # of special neighbors
  special bonds CPU = 0.0055264 secs
next i
jump MDPBB.in loop    # End of the loop
variable      randni equal round(random(1,${ntwall},$s))  # Pick a random "top" wall atom
variable      randni equal round(random(1,2888,$s))  
variable      randni equal round(random(1,2888,234897))  
variable      randatomi equal ${randni}                   # This is to obtain an integer number for atom-id
variable      randatomi equal 2713                   
variable      randzi equal z[${randatomi}]                # Determine the z coordinate of the chosen atom
variable      randzi equal z[2713]                
# if the chosen atom is not a surface atom then restart the loop
if            "${randzi} < $(v_wthick - 0.7)" then "jump MDPBB.in loop"
jump MDPBB.in loop
variable      randni equal round(random(1,${ntwall},$s))  # Pick a random "top" wall atom
variable      randni equal round(random(1,2888,$s))  
variable      randni equal round(random(1,2888,234897))  
variable      randatomi equal ${randni}                   # This is to obtain an integer number for atom-id
variable      randatomi equal 682                   
variable      randzi equal z[${randatomi}]                # Determine the z coordinate of the chosen atom
variable      randzi equal z[682]                
# if the chosen atom is not a surface atom then restart the loop
if            "${randzi} < $(v_wthick - 0.7)" then "jump MDPBB.in loop"
jump MDPBB.in loop
variable      randni equal round(random(1,${ntwall},$s))  # Pick a random "top" wall atom
variable      randni equal round(random(1,2888,$s))  
variable      randni equal round(random(1,2888,234897))  
variable      randatomi equal ${randni}                   # This is to obtain an integer number for atom-id
variable      randatomi equal 2694                   
variable      randzi equal z[${randatomi}]                # Determine the z coordinate of the chosen atom
variable      randzi equal z[2694]                
# if the chosen atom is not a surface atom then restart the loop
if            "${randzi} < $(v_wthick - 0.7)" then "jump MDPBB.in loop"
jump MDPBB.in loop
variable      randni equal round(random(1,${ntwall},$s))  # Pick a random "top" wall atom
variable      randni equal round(random(1,2888,$s))  
variable      randni equal round(random(1,2888,234897))  
variable      randatomi equal ${randni}                   # This is to obtain an integer number for atom-id
variable      randatomi equal 378                   
variable      randzi equal z[${randatomi}]                # Determine the z coordinate of the chosen atom
variable      randzi equal z[378]                
# if the chosen atom is not a surface atom then restart the loop
if            "${randzi} < $(v_wthick - 0.7)" then "jump MDPBB.in loop"
jump MDPBB.in loop
variable      randni equal round(random(1,${ntwall},$s))  # Pick a random "top" wall atom
variable      randni equal round(random(1,2888,$s))  
variable      randni equal round(random(1,2888,234897))  
variable      randatomi equal ${randni}                   # This is to obtain an integer number for atom-id
variable      randatomi equal 2456                   
variable      randzi equal z[${randatomi}]                # Determine the z coordinate of the chosen atom
variable      randzi equal z[2456]                
# if the chosen atom is not a surface atom then restart the loop
if            "${randzi} < $(v_wthick - 0.7)" then "jump MDPBB.in loop"
set           atom ${randatomi} type 4                    # Set this grafted wall atom as a new type
set           atom 2456 type 4                    
  1 settings made for type
group         twg id ${randatomi}                         # Add this atom to a top-wall-grafted group
group         twg id 2456                         
8 atoms in group twg
variable      twgcount equal count(twg)
print         "twg contains ${twgcount}"
twg contains 8
print         "i = $(v_i)"                                # The index i should always be equal to the number of atom in twg
i = 9
variable      x0 equal x[${randatomi}]                    # Determine its x-coord
variable      x0 equal x[2456]                    
variable      y0 equal y[${randatomi}]                    # Determine its y-coord
variable      y0 equal y[2456]                    
variable      check0 equal ${check}                       # Count the number of atoms in the simulation
variable      check0 equal 3128                       
variable      b equal ${check}+1                          # The grafted bead id will be one higher after being inserted
variable      b equal 3128+1                          
if            "${twgcount} != $(v_i)" then "jump MDPBB.in loop"
jump MDPBB.in loop
variable      randni equal round(random(1,${ntwall},$s))  # Pick a random "top" wall atom
variable      randni equal round(random(1,2888,$s))  
variable      randni equal round(random(1,2888,234897))  
variable      randatomi equal ${randni}                   # This is to obtain an integer number for atom-id
variable      randatomi equal 2698                   
variable      randzi equal z[${randatomi}]                # Determine the z coordinate of the chosen atom
variable      randzi equal z[2698]                
# if the chosen atom is not a surface atom then restart the loop
if            "${randzi} < $(v_wthick - 0.7)" then "jump MDPBB.in loop"
jump MDPBB.in loop
variable      randni equal round(random(1,${ntwall},$s))  # Pick a random "top" wall atom
variable      randni equal round(random(1,2888,$s))  
variable      randni equal round(random(1,2888,234897))  
variable      randatomi equal ${randni}                   # This is to obtain an integer number for atom-id
variable      randatomi equal 989                   
variable      randzi equal z[${randatomi}]                # Determine the z coordinate of the chosen atom
variable      randzi equal z[989]                
# if the chosen atom is not a surface atom then restart the loop
if            "${randzi} < $(v_wthick - 0.7)" then "jump MDPBB.in loop"
jump MDPBB.in loop
variable      randni equal round(random(1,${ntwall},$s))  # Pick a random "top" wall atom
variable      randni equal round(random(1,2888,$s))  
variable      randni equal round(random(1,2888,234897))  
variable      randatomi equal ${randni}                   # This is to obtain an integer number for atom-id
variable      randatomi equal 752                   
variable      randzi equal z[${randatomi}]                # Determine the z coordinate of the chosen atom
variable      randzi equal z[752]                
# if the chosen atom is not a surface atom then restart the loop
if            "${randzi} < $(v_wthick - 0.7)" then "jump MDPBB.in loop"
jump MDPBB.in loop
variable      randni equal round(random(1,${ntwall},$s))  # Pick a random "top" wall atom
variable      randni equal round(random(1,2888,$s))  
variable      randni equal round(random(1,2888,234897))  
variable      randatomi equal ${randni}                   # This is to obtain an integer number for atom-id
variable      randatomi equal 1918                   
variable      randzi equal z[${randatomi}]                # Determine the z coordinate of the chosen atom
variable      randzi equal z[1918]                
# if the chosen atom is not a surface atom then restart the loop
if            "${randzi} < $(v_wthick - 0.7)" then "jump MDPBB.in loop"
jump MDPBB.in loop
variable      randni equal round(random(1,${ntwall},$s))  # Pick a random "top" wall atom
variable      randni equal round(random(1,2888,$s))  
variable      randni equal round(random(1,2888,234897))  
variable      randatomi equal ${randni}                   # This is to obtain an integer number for atom-id
variable      randatomi equal 1347                   
variable      randzi equal z[${randatomi}]                # Determine the z coordinate of the chosen atom
variable      randzi equal z[1347]                
# if the chosen atom is not a surface atom then restart the loop
if            "${randzi} < $(v_wthick - 0.7)" then "jump MDPBB.in loop"
jump MDPBB.in loop
variable      randni equal round(random(1,${ntwall},$s))  # Pick a random "top" wall atom
variable      randni equal round(random(1,2888,$s))  
variable      randni equal round(random(1,2888,234897))  
variable      randatomi equal ${randni}                   # This is to obtain an integer number for atom-id
variable      randatomi equal 418                   
variable      randzi equal z[${randatomi}]                # Determine the z coordinate of the chosen atom
variable      randzi equal z[418]                
# if the chosen atom is not a surface atom then restart the loop
if            "${randzi} < $(v_wthick - 0.7)" then "jump MDPBB.in loop"
jump MDPBB.in loop
variable      randni equal round(random(1,${ntwall},$s))  # Pick a random "top" wall atom
variable      randni equal round(random(1,2888,$s))  
variable      randni equal round(random(1,2888,234897))  
variable      randatomi equal ${randni}                   # This is to obtain an integer number for atom-id
variable      randatomi equal 2659                   
variable      randzi equal z[${randatomi}]                # Determine the z coordinate of the chosen atom
variable      randzi equal z[2659]                
# if the chosen atom is not a surface atom then restart the loop
if            "${randzi} < $(v_wthick - 0.7)" then "jump MDPBB.in loop"
set           atom ${randatomi} type 4                    # Set this grafted wall atom as a new type
set           atom 2659 type 4                    
  1 settings made for type
group         twg id ${randatomi}                         # Add this atom to a top-wall-grafted group
group         twg id 2659                         
9 atoms in group twg
variable      twgcount equal count(twg)
print         "twg contains ${twgcount}"
twg contains 9
print         "i = $(v_i)"                                # The index i should always be equal to the number of atom in twg
i = 9
variable      x0 equal x[${randatomi}]                    # Determine its x-coord
variable      x0 equal x[2659]                    
variable      y0 equal y[${randatomi}]                    # Determine its y-coord
variable      y0 equal y[2659]                    
variable      check0 equal ${check}                       # Count the number of atoms in the simulation
variable      check0 equal 3128                       
variable      b equal ${check}+1                          # The grafted bead id will be one higher after being inserted
variable      b equal 3128+1                          
if            "${twgcount} != $(v_i)" then "jump MDPBB.in loop"
# Otherwise insert the chain directly above the chosen wall atom pointing perpendicular to the wall
create_atoms  1 single ${x0} ${y0} ${z0} mol bs 24987 units box remap yes rotate 0 0 0 1
create_atoms  1 single 29.3669194614117 ${y0} ${z0} mol bs 24987 units box remap yes rotate 0 0 0 1
create_atoms  1 single 29.3669194614117 23.811015779523 ${z0} mol bs 24987 units box remap yes rotate 0 0 0 1
create_atoms  1 single 29.3669194614117 23.811015779523 17 mol bs 24987 units box remap yes rotate 0 0 0 1
Created 30 atoms
  create_atoms CPU = 0.0001061 secs
variable      check1 equal ${check}               # Count the new total number of atoms
variable      check1 equal 3158               
# Check that the molecule has indeed been inserted (This check is no longer an issue).
if            "${check1} != ${check0}" then "create_bonds  single/bond 2 ${randatomi} $b" "next i"
create_bonds  single/bond 2 ${randatomi} $b
create_bonds  single/bond 2 2659 $b
create_bonds  single/bond 2 2659 3129
  2 = max # of 1-2 neighbors
  5 = max # of special neighbors
  special bonds CPU = 0.0033081 secs
next i
jump MDPBB.in loop    # End of the loop
variable      randni equal round(random(1,${ntwall},$s))  # Pick a random "top" wall atom
variable      randni equal round(random(1,2888,$s))  
variable      randni equal round(random(1,2888,234897))  
variable      randatomi equal ${randni}                   # This is to obtain an integer number for atom-id
variable      randatomi equal 2763                   
variable      randzi equal z[${randatomi}]                # Determine the z coordinate of the chosen atom
variable      randzi equal z[2763]                
# if the chosen atom is not a surface atom then restart the loop
if            "${randzi} < $(v_wthick - 0.7)" then "jump MDPBB.in loop"
set           atom ${randatomi} type 4                    # Set this grafted wall atom as a new type
set           atom 2763 type 4                    
  1 settings made for type
group         twg id ${randatomi}                         # Add this atom to a top-wall-grafted group
group         twg id 2763                         
10 atoms in group twg
variable      twgcount equal count(twg)
print         "twg contains ${twgcount}"
twg contains 10
print         "i = $(v_i)"                                # The index i should always be equal to the number of atom in twg
i = 10
variable      x0 equal x[${randatomi}]                    # Determine its x-coord
variable      x0 equal x[2763]                    
variable      y0 equal y[${randatomi}]                    # Determine its y-coord
variable      y0 equal y[2763]                    
variable      check0 equal ${check}                       # Count the number of atoms in the simulation
variable      check0 equal 3158                       
variable      b equal ${check}+1                          # The grafted bead id will be one higher after being inserted
variable      b equal 3158+1                          
if            "${twgcount} != $(v_i)" then "jump MDPBB.in loop"
# Otherwise insert the chain directly above the chosen wall atom pointing perpendicular to the wall
create_atoms  1 single ${x0} ${y0} ${z0} mol bs 24987 units box remap yes rotate 0 0 0 1
create_atoms  1 single 10.3181068377933 ${y0} ${z0} mol bs 24987 units box remap yes rotate 0 0 0 1
create_atoms  1 single 10.3181068377933 26.9858178834594 ${z0} mol bs 24987 units box remap yes rotate 0 0 0 1
create_atoms  1 single 10.3181068377933 26.9858178834594 17 mol bs 24987 units box remap yes rotate 0 0 0 1
Created 30 atoms
  create_atoms CPU = 0.0001323 secs
variable      check1 equal ${check}               # Count the new total number of atoms
variable      check1 equal 3188               
# Check that the molecule has indeed been inserted (This check is no longer an issue).
if            "${check1} != ${check0}" then "create_bonds  single/bond 2 ${randatomi} $b" "next i"
create_bonds  single/bond 2 ${randatomi} $b
create_bonds  single/bond 2 2763 $b
create_bonds  single/bond 2 2763 3159
  2 = max # of 1-2 neighbors
  5 = max # of special neighbors
  special bonds CPU = 0.0044072 secs
next i
jump MDPBB.in loop    # End of the loop
variable      randni equal round(random(1,${ntwall},$s))  # Pick a random "top" wall atom
variable      randni equal round(random(1,2888,$s))  
variable      randni equal round(random(1,2888,234897))  
variable      randatomi equal ${randni}                   # This is to obtain an integer number for atom-id
variable      randatomi equal 2611                   
variable      randzi equal z[${randatomi}]                # Determine the z coordinate of the chosen atom
variable      randzi equal z[2611]                
# if the chosen atom is not a surface atom then restart the loop
if            "${randzi} < $(v_wthick - 0.7)" then "jump MDPBB.in loop"
set           atom ${randatomi} type 4                    # Set this grafted wall atom as a new type
set           atom 2611 type 4                    
  1 settings made for type
group         twg id ${randatomi}                         # Add this atom to a top-wall-grafted group
group         twg id 2611                         
11 atoms in group twg
variable      twgcount equal count(twg)
print         "twg contains ${twgcount}"
twg contains 11
print         "i = $(v_i)"                                # The index i should always be equal to the number of atom in twg
i = 11
variable      x0 equal x[${randatomi}]                    # Determine its x-coord
variable      x0 equal x[2611]                    
variable      y0 equal y[${randatomi}]                    # Determine its y-coord
variable      y0 equal y[2611]                    
variable      check0 equal ${check}                       # Count the number of atoms in the simulation
variable      check0 equal 3188                       
variable      b equal ${check}+1                          # The grafted bead id will be one higher after being inserted
variable      b equal 3188+1                          
if            "${twgcount} != $(v_i)" then "jump MDPBB.in loop"
# Otherwise insert the chain directly above the chosen wall atom pointing perpendicular to the wall
create_atoms  1 single ${x0} ${y0} ${z0} mol bs 24987 units box remap yes rotate 0 0 0 1
create_atoms  1 single 10.3181068377933 ${y0} ${z0} mol bs 24987 units box remap yes rotate 0 0 0 1
create_atoms  1 single 10.3181068377933 23.811015779523 ${z0} mol bs 24987 units box remap yes rotate 0 0 0 1
create_atoms  1 single 10.3181068377933 23.811015779523 17 mol bs 24987 units box remap yes rotate 0 0 0 1
Created 30 atoms
  create_atoms CPU = 7.97e-05 secs
variable      check1 equal ${check}               # Count the new total number of atoms
variable      check1 equal 3218               
# Check that the molecule has indeed been inserted (This check is no longer an issue).
if            "${check1} != ${check0}" then "create_bonds  single/bond 2 ${randatomi} $b" "next i"
create_bonds  single/bond 2 ${randatomi} $b
create_bonds  single/bond 2 2611 $b
create_bonds  single/bond 2 2611 3189
  2 = max # of 1-2 neighbors
  5 = max # of special neighbors
  special bonds CPU = 0.0027339 secs
next i
jump MDPBB.in loop    # End of the loop
variable      randni equal round(random(1,${ntwall},$s))  # Pick a random "top" wall atom
variable      randni equal round(random(1,2888,$s))  
variable      randni equal round(random(1,2888,234897))  
variable      randatomi equal ${randni}                   # This is to obtain an integer number for atom-id
variable      randatomi equal 2302                   
variable      randzi equal z[${randatomi}]                # Determine the z coordinate of the chosen atom
variable      randzi equal z[2302]                
# if the chosen atom is not a surface atom then restart the loop
if            "${randzi} < $(v_wthick - 0.7)" then "jump MDPBB.in loop"
jump MDPBB.in loop
variable      randni equal round(random(1,${ntwall},$s))  # Pick a random "top" wall atom
variable      randni equal round(random(1,2888,$s))  
variable      randni equal round(random(1,2888,234897))  
variable      randatomi equal ${randni}                   # This is to obtain an integer number for atom-id
variable      randatomi equal 1267                   
variable      randzi equal z[${randatomi}]                # Determine the z coordinate of the chosen atom
variable      randzi equal z[1267]                
# if the chosen atom is not a surface atom then restart the loop
if            "${randzi} < $(v_wthick - 0.7)" then "jump MDPBB.in loop"
jump MDPBB.in loop
variable      randni equal round(random(1,${ntwall},$s))  # Pick a random "top" wall atom
variable      randni equal round(random(1,2888,$s))  
variable      randni equal round(random(1,2888,234897))  
variable      randatomi equal ${randni}                   # This is to obtain an integer number for atom-id
variable      randatomi equal 1072                   
variable      randzi equal z[${randatomi}]                # Determine the z coordinate of the chosen atom
variable      randzi equal z[1072]                
# if the chosen atom is not a surface atom then restart the loop
if            "${randzi} < $(v_wthick - 0.7)" then "jump MDPBB.in loop"
jump MDPBB.in loop
variable      randni equal round(random(1,${ntwall},$s))  # Pick a random "top" wall atom
variable      randni equal round(random(1,2888,$s))  
variable      randni equal round(random(1,2888,234897))  
variable      randatomi equal ${randni}                   # This is to obtain an integer number for atom-id
variable      randatomi equal 2025                   
variable      randzi equal z[${randatomi}]                # Determine the z coordinate of the chosen atom
variable      randzi equal z[2025]                
# if the chosen atom is not a surface atom then restart the loop
if            "${randzi} < $(v_wthick - 0.7)" then "jump MDPBB.in loop"
jump MDPBB.in loop
variable      randni equal round(random(1,${ntwall},$s))  # Pick a random "top" wall atom
variable      randni equal round(random(1,2888,$s))  
variable      randni equal round(random(1,2888,234897))  
variable      randatomi equal ${randni}                   # This is to obtain an integer number for atom-id
variable      randatomi equal 271                   
variable      randzi equal z[${randatomi}]                # Determine the z coordinate of the chosen atom
variable      randzi equal z[271]                
# if the chosen atom is not a surface atom then restart the loop
if            "${randzi} < $(v_wthick - 0.7)" then "jump MDPBB.in loop"
jump MDPBB.in loop
variable      randni equal round(random(1,${ntwall},$s))  # Pick a random "top" wall atom
variable      randni equal round(random(1,2888,$s))  
variable      randni equal round(random(1,2888,234897))  
variable      randatomi equal ${randni}                   # This is to obtain an integer number for atom-id
variable      randatomi equal 1094                   
variable      randzi equal z[${randatomi}]                # Determine the z coordinate of the chosen atom
variable      randzi equal z[1094]                
# if the chosen atom is not a surface atom then restart the loop
if            "${randzi} < $(v_wthick - 0.7)" then "jump MDPBB.in loop"
jump MDPBB.in loop
variable      randni equal round(random(1,${ntwall},$s))  # Pick a random "top" wall atom
variable      randni equal round(random(1,2888,$s))  
variable      randni equal round(random(1,2888,234897))  
variable      randatomi equal ${randni}                   # This is to obtain an integer number for atom-id
variable      randatomi equal 1260                   
variable      randzi equal z[${randatomi}]                # Determine the z coordinate of the chosen atom
variable      randzi equal z[1260]                
# if the chosen atom is not a surface atom then restart the loop
if            "${randzi} < $(v_wthick - 0.7)" then "jump MDPBB.in loop"
jump MDPBB.in loop
variable      randni equal round(random(1,${ntwall},$s))  # Pick a random "top" wall atom
variable      randni equal round(random(1,2888,$s))  
variable      randni equal round(random(1,2888,234897))  
variable      randatomi equal ${randni}                   # This is to obtain an integer number for atom-id
variable      randatomi equal 949                   
variable      randzi equal z[${randatomi}]                # Determine the z coordinate of the chosen atom
variable      randzi equal z[949]                
# if the chosen atom is not a surface atom then restart the loop
if            "${randzi} < $(v_wthick - 0.7)" then "jump MDPBB.in loop"
jump MDPBB.in loop
variable      randni equal round(random(1,${ntwall},$s))  # Pick a random "top" wall atom
variable      randni equal round(random(1,2888,$s))  
variable      randni equal round(random(1,2888,234897))  
variable      randatomi equal ${randni}                   # This is to obtain an integer number for atom-id
variable      randatomi equal 1761                   
variable      randzi equal z[${randatomi}]                # Determine the z coordinate of the chosen atom
variable      randzi equal z[1761]                
# if the chosen atom is not a surface atom then restart the loop
if            "${randzi} < $(v_wthick - 0.7)" then "jump MDPBB.in loop"
jump MDPBB.in loop
variable      randni equal round(random(1,${ntwall},$s))  # Pick a random "top" wall atom
variable      randni equal round(random(1,2888,$s))  
variable      randni equal round(random(1,2888,234897))  
variable      randatomi equal ${randni}                   # This is to obtain an integer number for atom-id
variable      randatomi equal 827                   
variable      randzi equal z[${randatomi}]                # Determine the z coordinate of the chosen atom
variable      randzi equal z[827]                
# if the chosen atom is not a surface atom then restart the loop
if            "${randzi} < $(v_wthick - 0.7)" then "jump MDPBB.in loop"
jump MDPBB.in loop
variable      randni equal round(random(1,${ntwall},$s))  # Pick a random "top" wall atom
variable      randni equal round(random(1,2888,$s))  
variable      randni equal round(random(1,2888,234897))  
variable      randatomi equal ${randni}                   # This is to obtain an integer number for atom-id
variable      randatomi equal 688                   
variable      randzi equal z[${randatomi}]                # Determine the z coordinate of the chosen atom
variable      randzi equal z[688]                
# if the chosen atom is not a surface atom then restart the loop
if            "${randzi} < $(v_wthick - 0.7)" then "jump MDPBB.in loop"
jump MDPBB.in loop
variable      randni equal round(random(1,${ntwall},$s))  # Pick a random "top" wall atom
variable      randni equal round(random(1,2888,$s))  
variable      randni equal round(random(1,2888,234897))  
variable      randatomi equal ${randni}                   # This is to obtain an integer number for atom-id
variable      randatomi equal 248                   
variable      randzi equal z[${randatomi}]                # Determine the z coordinate of the chosen atom
variable      randzi equal z[248]                
# if the chosen atom is not a surface atom then restart the loop
if            "${randzi} < $(v_wthick - 0.7)" then "jump MDPBB.in loop"
jump MDPBB.in loop
variable      randni equal round(random(1,${ntwall},$s))  # Pick a random "top" wall atom
variable      randni equal round(random(1,2888,$s))  
variable      randni equal round(random(1,2888,234897))  
variable      randatomi equal ${randni}                   # This is to obtain an integer number for atom-id
variable      randatomi equal 1966                   
variable      randzi equal z[${randatomi}]                # Determine the z coordinate of the chosen atom
variable      randzi equal z[1966]                
# if the chosen atom is not a surface atom then restart the loop
if            "${randzi} < $(v_wthick - 0.7)" then "jump MDPBB.in loop"
jump MDPBB.in loop
variable      randni equal round(random(1,${ntwall},$s))  # Pick a random "top" wall atom
variable      randni equal round(random(1,2888,$s))  
variable      randni equal round(random(1,2888,234897))  
variable      randatomi equal ${randni}                   # This is to obtain an integer number for atom-id
variable      randatomi equal 2118                   
variable      randzi equal z[${randatomi}]                # Determine the z coordinate of the chosen atom
variable      randzi equal z[2118]                
# if the chosen atom is not a surface atom then restart the loop
if            "${randzi} < $(v_wthick - 0.7)" then "jump MDPBB.in loop"
jump MDPBB.in loop
variable      randni equal round(random(1,${ntwall},$s))  # Pick a random "top" wall atom
variable      randni equal round(random(1,2888,$s))  
variable      randni equal round(random(1,2888,234897))  
variable      randatomi equal ${randni}                   # This is to obtain an integer number for atom-id
variable      randatomi equal 973                   
variable      randzi equal z[${randatomi}]                # Determine the z coordinate of the chosen atom
variable      randzi equal z[973]                
# if the chosen atom is not a surface atom then restart the loop
if            "${randzi} < $(v_wthick - 0.7)" then "jump MDPBB.in loop"
jump MDPBB.in loop
variable      randni equal round(random(1,${ntwall},$s))  # Pick a random "top" wall atom
variable      randni equal round(random(1,2888,$s))  
variable      randni equal round(random(1,2888,234897))  
variable      randatomi equal ${randni}                   # This is to obtain an integer number for atom-id
variable      randatomi equal 1444                   
variable      randzi equal z[${randatomi}]                # Determine the z coordinate of the chosen atom
variable      randzi equal z[1444]                
# if the chosen atom is not a surface atom then restart the loop
if            "${randzi} < $(v_wthick - 0.7)" then "jump MDPBB.in loop"
jump MDPBB.in loop
variable      randni equal round(random(1,${ntwall},$s))  # Pick a random "top" wall atom
variable      randni equal round(random(1,2888,$s))  
variable      randni equal round(random(1,2888,234897))  
variable      randatomi equal ${randni}                   # This is to obtain an integer number for atom-id
variable      randatomi equal 1243                   
variable      randzi equal z[${randatomi}]                # Determine the z coordinate of the chosen atom
variable      randzi equal z[1243]                
# if the chosen atom is not a surface atom then restart the loop
if            "${randzi} < $(v_wthick - 0.7)" then "jump MDPBB.in loop"
jump MDPBB.in loop
variable      randni equal round(random(1,${ntwall},$s))  # Pick a random "top" wall atom
variable      randni equal round(random(1,2888,$s))  
variable      randni equal round(random(1,2888,234897))  
variable      randatomi equal ${randni}                   # This is to obtain an integer number for atom-id
variable      randatomi equal 654                   
variable      randzi equal z[${randatomi}]                # Determine the z coordinate of the chosen atom
variable      randzi equal z[654]                
# if the chosen atom is not a surface atom then restart the loop
if            "${randzi} < $(v_wthick - 0.7)" then "jump MDPBB.in loop"
jump MDPBB.in loop
variable      randni equal round(random(1,${ntwall},$s))  # Pick a random "top" wall atom
variable      randni equal round(random(1,2888,$s))  
variable      randni equal round(random(1,2888,234897))  
variable      randatomi equal ${randni}                   # This is to obtain an integer number for atom-id
variable      randatomi equal 1674                   
variable      randzi equal z[${randatomi}]                # Determine the z coordinate of the chosen atom
variable      randzi equal z[1674]                
# if the chosen atom is not a surface atom then restart the loop
if            "${randzi} < $(v_wthick - 0.7)" then "jump MDPBB.in loop"
jump MDPBB.in loop
variable      randni equal round(random(1,${ntwall},$s))  # Pick a random "top" wall atom
variable      randni equal round(random(1,2888,$s))  
variable      randni equal round(random(1,2888,234897))  
variable      randatomi equal ${randni}                   # This is to obtain an integer number for atom-id
variable      randatomi equal 528                   
variable      randzi equal z[${randatomi}]                # Determine the z coordinate of the chosen atom
variable      randzi equal z[528]                
# if the chosen atom is not a surface atom then restart the loop
if            "${randzi} < $(v_wthick - 0.7)" then "jump MDPBB.in loop"
jump MDPBB.in loop
variable      randni equal round(random(1,${ntwall},$s))  # Pick a random "top" wall atom
variable      randni equal round(random(1,2888,$s))  
variable      randni equal round(random(1,2888,234897))  
[...]
 4968000    4.1830001     1.274497    2.9085031  -0.21187998   0.84975528   0.99446122   0.75972118   -1.2465374            1    1.5393515    2.1766283    2.1720656   0.26936057 -0.0079979988 -0.034677907 -0.022446697    1.2482135    1.8880339    1.8789283 -0.022321633 -0.008905687 -0.036317492 -0.013422894    1.3790122    1.4085528   0.71028062  0.066666667    1.4039454        0.001 0.00017757016     5.631577    2.4781925    30.403515 -0.0062387711  -0.19369773  0.022962335   0.22350206 -0.0062089973  -0.19365368  0.022962335   0.22350206 
 4969000    4.1674359    1.2656695    2.9017664   -0.2073762   0.84386964   0.99419838   0.75033037   -1.2465374            1    1.5439988    2.1700504    2.1847212   0.27722474  0.024604181 0.0084352258 -0.033732029    1.2548773    1.8807578    1.8978273 -0.013953187  0.021540642  0.011460162 -0.036143886    1.3856414    1.4132346   0.70301332  0.066666667    1.4162869        0.001 0.00017575333    5.6897926    2.4775401    30.403515 -0.012798684  -0.18160932  0.002947833    0.2069022 -0.012798684  -0.18160932  0.002947833    0.2069022 
 4970000    4.1507974    1.2695808    2.8812165  -0.21673068    0.8464775   0.99886637   0.75165481   -1.2465374            1    1.5979149    2.1897736    2.2381501   0.36582118 -0.010820116  0.078212907  0.015646508       1.3079    1.9069491     1.941062  0.075688884 -0.0066011379  0.077753652  0.012964025    1.4392781    1.4665369   0.70872363  0.066666667    1.4269828        0.001 0.00017718091     5.643949    2.4876452    30.403515 0.0097485812  -0.22883157 0.0050984073   0.17634683 0.0097485812  -0.22883157 0.0050984073   0.17634683 
 4971000    4.1709111    1.2674354    2.9034757  -0.22429625   0.84504707   0.99946226   0.74896132   -1.2465374            1    1.5923354    2.2074606    2.2104467   0.35909893 0.0016534601  0.030124453 0.0076495738    1.3028105    1.9153212    1.9230876  0.070022745  0.001650769  0.036278017 0.0070686453     1.434267    1.4608789   0.72152471  0.066666667    1.4352922        0.001 0.00018038118    5.5438157    2.5062266    30.403515 -0.011144694  -0.19297003 -0.0079927304   0.20083467 -0.011144694  -0.19297003 -0.0079927304   0.20083467 
 4972000    4.1586416    1.2777056     2.880936  -0.21461949   0.85189459    1.0065431   0.75566462   -1.2465374            1    1.5072167    2.1632555    2.1289931   0.22940145 -5.5192229e-05  0.052300662  0.031661753    1.2153458    1.8614416    1.8454906 -0.060894968 0.00033806968  0.053943564  0.034003878    1.3477335    1.3748289   0.70926465  0.066666667    1.4367109        0.001 0.00017731616    5.6396438    2.4822166    30.403515 -0.014981913  -0.20227036 -0.013411932   0.15476715 -0.014981913  -0.20227036 -0.013411932   0.15476715 
 4973000    4.1401562    1.2579429    2.8822133  -0.22507882   0.83871807   0.99616037   0.74074472   -1.2465374            1    1.6094454    2.2032784    2.1945771   0.43048062  0.013541469 -0.014826076 -0.065788802    1.3220889    1.9201166    1.9108664   0.13528372  0.016933866 -0.013300814 -0.069373251    1.4531111    1.4784232    0.7030846  0.066666667      1.43618        0.001 0.00017577115    5.6892158    2.4858097    30.403515 0.00040369345  -0.20664711  -0.00639813   0.18903622 0.00040369345  -0.20664711  -0.00639813   0.18903622 
 4974000    4.1605686    1.2741475    2.8864211  -0.20914789   0.84952226    1.0034434   0.75374516   -1.2465374            1    1.5820854    2.2012134    2.2025784   0.34246454 0.0034608741 -0.0030197587 -0.062168104    1.2910273    1.9068901    1.9183538  0.047838011 0.0073748719 -0.0052092892 -0.062645175    1.4230074    1.4501053   0.71021673  0.066666667    1.4289742        0.001 0.00017755418    5.6320836    2.5188302    30.403515 -0.0024521526  -0.20507679  0.009354323   0.20231469 -0.0024521526  -0.20507679  0.009354323   0.20231469 
 4975000    4.1687429    1.2776767    2.8910662  -0.21503108    0.8518753    0.9927744   0.76421401   -1.2465374            1     1.700025    2.3010278    2.3030898   0.49595753 -0.015397874  -0.12438684 0.0055570755    1.4081607    2.0098706     2.010302    0.2043096 -0.016688182  -0.12727549 0.0033138608    1.5387376    1.5694482   0.71743492  0.066666667    1.4263664        0.001 0.00017935873    5.5754186    2.4902887    30.403515  0.014597958  -0.18255103 -0.0009127458    0.2155883  0.014597958  -0.18255103 -0.0009127458    0.2155883 
 4976000    4.1681873    1.2750491    2.8931382  -0.20885019   0.85012343    1.0059225   0.75317609   -1.2465374            1    1.5443473    2.1817302     2.166409   0.28490262 -0.0061423447  -0.10488656  0.040825211    1.2530832    1.8961336    1.8809886 -0.017872811 -0.00087120135 -0.095933185  0.042386791    1.3853893    1.4120411   0.70617367  0.066666667    1.4443179        0.001 0.00017654342     5.664329    2.4728987    30.403515 0.0044505166  -0.18936054 -0.0030482018   0.18124639 0.0044505166  -0.18936054 -0.0030482018   0.18124639 
 4977000    4.1512212     1.260899    2.8903222  -0.21488157   0.84068897   0.98975644   0.74793518   -1.2465374            1    1.6300874    2.2166618    2.2519998   0.42160061  0.018026246 -0.090855574 -0.056454646    1.3420557    1.9346588    1.9589567   0.13255162  0.018745919 -0.092856129 -0.055590475    1.4722356    1.4999075    0.7019832  0.066666667    1.4456749        0.001 0.0001754958    5.6981421    2.4873037    30.403515 0.0032149024  -0.19386222 -0.023149856   0.21128926 0.0032149024  -0.19386222 -0.023149856   0.21128926 
 4978000    4.1544688    1.2733955    2.8810732  -0.22146915   0.84902091    1.0034504   0.75292694   -1.2465374            1    1.5778703    2.2111788    2.1920206   0.33041142 -0.025840759 -0.090198636 0.0097570041    1.2869839     1.921595    1.9019493  0.037407437 -0.023303501 -0.091760139  0.012055175    1.4189649    1.4458893   0.70820819  0.066666667    1.4402561        0.001 0.00017705205    5.6480567    2.4924982    30.403515 -0.0034008258  -0.20077265 -0.00017142342   0.18622593 -0.0034008258  -0.20077265 -0.00017142342   0.18622593 
 4979000    4.1797342    1.2781879    2.9015463  -0.21844884   0.85221618    1.0024807   0.75871836   -1.2465374            1    1.7353621    2.3248344    2.3057703   0.57548168 0.0054655858 -0.067478485 0.0015260659     1.443381    2.0282497    2.0150008   0.28689261 0.0080414254 -0.067929163 -0.00028892741    1.5752345    1.6035086   0.71548658  0.066666667    1.4337062        0.001 0.00017887165     5.590601    2.5099556    30.403515 -0.0085838317  -0.19723495 -0.0047814515   0.19099109 -0.0085838317  -0.19723495 -0.0047814515   0.19099109 
 4980000    4.1723077    1.2889067     2.883401  -0.21403586   0.85936282    1.0105841   0.76527001   -1.2465374            1    1.5822721    2.2144312    2.1969801   0.33540501  0.016127365  0.002651384  0.040359967    1.2878425    1.9226227    1.9032089  0.037695823  0.011662391 -0.0035635023  0.036255187    1.4207618    1.4493528   0.71200831  0.066666667    1.4164304        0.001 0.00017800208    5.6179119    2.5063991    30.403515 -0.0049961395  -0.19589754 -0.0060188772   0.18129162 -0.0049961395  -0.19589754 -0.0060188772   0.18129162 
 4981000    4.1783844    1.2843046    2.8940798  -0.21882588   0.85629439    1.0147493   0.75769304   -1.2465374            1    1.5943308    2.2354812    2.1952211   0.35229001 -0.0040487488 -0.0029352609  0.003889284    1.3009524    1.9363836    1.9005724  0.065901281 -0.0096788749 -0.0068359459  0.007452404    1.4344195    1.4608636   0.69897327  0.066666667    1.4211758        0.001 0.00017474332    5.7226795    2.4888612    30.403515 -0.00056852016   -0.1952515 -8.1164725e-05   0.19863273 -0.00056852016   -0.1952515 -8.1164725e-05   0.19863273 
 4982000    4.1732298    1.2871976    2.8860322  -0.23157463   0.85822325    1.0261353   0.75372853   -1.2465374            1     1.613863    2.1886917    2.2426264   0.41027099 0.0022264107   0.11351729 -0.021828893    1.3198238     1.895968    1.9504208   0.11308271 -0.0027407474   0.11468671  -0.02640337    1.4547885    1.4788984     0.701713  0.066666667    1.4219681        0.001 0.00017542825    5.7003362     2.490451    30.403515 -0.0080428019  -0.18327184 -0.012878857   0.19274458 -0.0080428019  -0.18327184 -0.012878857   0.19274458 
 4983000    4.1837056    1.2737094    2.9099962   -0.2233406    0.8492302    1.0162946   0.74526214   -1.2465374            1    1.5035317    2.1246461    2.1430252   0.24292377 -0.010014235   0.10223464 0.00091939389    1.2125736     1.837597    1.8481184 -0.047994647 -0.011099763    0.1045439 -0.0056096005     1.346244    1.3698613   0.71196909  0.066666667    1.4109394        0.001 0.00017799227    5.6182214    2.4894209    30.403515  0.024759284  -0.18344141  -0.00398466   0.17933596  0.024759284  -0.18344141  -0.00398466   0.17933596 
 4984000    4.1935148    1.2834223    2.9100924  -0.21536296   0.85570615   0.99669412   0.76799014   -1.2465374            1    1.6130242     2.217543    2.2152111   0.40631848 0.0041894949  0.062398134 -0.031689869    1.3198473    1.9224139    1.9232621   0.11386604 0.0047556972  0.064599602  -0.03144762    1.4509397    1.4819318   0.71330008  0.066666667    1.4035025        0.001 0.00017832502    5.6077381    2.4816408    30.403515  0.003846145  -0.23095324  0.014392995   0.22747044  0.003838264  -0.23078221  0.014392995   0.22747044 
 4985000    4.1554585     1.277284    2.8781745  -0.21759939    0.8516135    1.0030091   0.75741072   -1.2465374            1    1.6672341    2.2711176    2.2717753   0.45880935  0.015909861  0.016018765 -0.0032733882    1.3754595    1.9827349    1.9764108   0.16723276  0.013670556  0.015241413 -0.0018394457    1.5073824    1.5353111   0.69945101  0.066666667    1.4177364        0.001 0.00017486275    5.7187708    2.4873752    30.403515 -0.0055327743  -0.18708695 0.0036593645   0.18553689 -0.0055327743  -0.18708695 0.0036593645   0.18553689 
 4986000    4.2002064    1.2925383    2.9076681  -0.20577731    0.8617841    1.0232935   0.76128014   -1.2465374            1    1.6919662    2.2902058    2.2763478   0.50934505  0.020378151  -0.15817931 -0.0057271999     1.396707    1.9925976    1.9875833   0.20994021  0.024081394  -0.15418617 -0.0090066283    1.5312979    1.5573753   0.70141341  0.066666667    1.3990572        0.001 0.00017535335    5.7027709    2.5065451    30.403515 0.0085146688  -0.16669374 -0.001426726   0.14792646 0.0085146688  -0.16669374 -0.001426726   0.14792646 
 4987000    4.1798297    1.2839298    2.8958999  -0.20660557   0.85604452     1.007081   0.76206626   -1.2465374            1     1.585303    2.1966614    2.2114193   0.34782816 -0.0040625572  0.086962173 -0.0073653097    1.2920102    1.9029678    1.9188884  0.054174449 -0.0051054832  0.089282652 -0.0050720698    1.4244688    1.4528444   0.71059777  0.066666667    1.4088299        0.001 0.00017764944    5.6290636     2.512374    30.403515 -0.010985777  -0.22203513 -7.5622265e-05   0.21708789 -0.010985777  -0.22203513 -7.5622265e-05   0.21708789 
 4988000    4.1395802    1.2498552     2.889725  -0.22628525   0.83332571   0.99617866   0.73197948   -1.2465374            1    1.6172651    2.2173432    2.2413706    0.3930813 -0.0017649644   0.10317798   0.01158051    1.3317561    1.9367585    1.9570625   0.10144732 -0.001743302    0.1049755  0.011708245    1.4627807    1.4862405   0.70774579  0.066666667    1.3933438        0.001 0.00017693645    5.6517468    2.4882466    30.403515 -0.0031422246  -0.16043339 -0.0021802012   0.22110678 -0.0031422246  -0.16043339 -0.0021802012   0.22110678 
 4989000    4.1492108     1.253345    2.8958658  -0.21528734   0.83565243   0.98489259   0.74279014   -1.2465374            1    1.6165533    2.2074011    2.2219507   0.42030829  0.011413623  0.055446026  -0.04306751    1.3302472    1.9265474    1.9308149   0.13337932  0.010075028  0.052429693 -0.044267419    1.4597874    1.4870132   0.69905612  0.066666667    1.4204338        0.001 0.00017476403    5.7220012    2.5008898    30.403515  0.013294582  -0.19839774 -0.014398862   0.20881135  0.013294582  -0.19839774 -0.014398862   0.20881135 
 4990000    4.1561364    1.2802934    2.8758431  -0.21868609   0.85361996    1.0177852   0.75145946   -1.2465374            1      1.62554    2.2314321    2.2554124   0.38977561 -0.011216184  0.073702215 -0.086817449     1.333078    1.9363781    1.9620805   0.10077523 -0.012525163  0.072692318 -0.082950558    1.4669444    1.4916736   0.70614543  0.066666667    1.4404651        0.001 0.00017653636    5.6645555    2.4981263    30.403515 -0.0025441808  -0.20324955 -0.0029206687   0.20334776 -0.0025441808  -0.20324955 -0.0029206687   0.20334776 
 4991000     4.177638    1.2806546    2.8969834  -0.21084994   0.85386077    1.0110864   0.75602508   -1.2465374            1    1.5783612    2.2146633    2.1888676   0.33155262 -0.0031931683    0.1377524  0.018793135    1.2858166    1.9279686     1.890636  0.038845239 -0.0027316768   0.14020467  0.018173037     1.418802    1.4453758   0.71032673  0.066666667    1.4312545        0.001 0.00017758168    5.6312114    2.4953853    30.403515 -0.0032703312  -0.19785716 0.0083558539   0.17906892 -0.0032703312  -0.19785716 0.0083558539   0.17906892 
 4992000    4.1481059    1.2774115    2.8706944  -0.23353073    0.8516985    1.0247599    0.7439935   -1.2465374            1    1.5980612    2.2081013    2.2213693   0.36471298 0.0075054762   0.14021272  -0.06488032    1.3062574    1.9150976    1.9275611  0.076113623 0.0036988255   0.14182504 -0.059337991    1.4410412    1.4632774   0.70806385  0.066666667    1.4368385        0.001 0.00017701596    5.6492081    2.4936998    30.403515 -0.0016259092  -0.17783883 0.0072293145   0.21823065 -0.0016259092  -0.17783883 0.0072293145   0.21823065 
 4993000    4.1638378    1.2620056    2.9018322  -0.20962511   0.84142683   0.99476048   0.74601446   -1.2465374            1    1.5562916    2.1624846    2.1719096   0.33448059 -0.002967552   0.07283646 -0.018304837    1.2680071    1.8777884     1.882797  0.043435925 -0.0047954752  0.070384367 -0.024444818    1.3988451    1.4254536    0.7060601  0.066666667    1.4477003        0.001 0.00017651503    5.6652401    2.5079737    30.403515  0.007483893  -0.23496145 0.00036226604   0.19513273  0.007483893  -0.23496145 0.00036226604   0.19513273 
 4994000    4.2028916    1.2910181    2.9118735  -0.21168275   0.86077054    1.0149967    0.7648053   -1.2465374            1    1.4528665    2.1018234    2.1125165   0.14425945 -9.2554632e-05  -0.12898565  0.005014117    1.1579545    1.8064042    1.8117638  -0.14430451 -0.0033877697  -0.12734922 0.00097980206    1.2914542    1.3193668   0.69779798  0.066666667    1.4722247        0.001 0.00017444949    5.7323181    2.4867758    30.403515 -0.0048894032  -0.22699703 -0.0010557118   0.17372545 -0.0048894032  -0.22699703 -0.0010557118   0.17372545 
 4995000    4.1547256    1.2771276    2.8775979  -0.22471161   0.85150924    1.0228496   0.74487681   -1.2465374            1    1.5822745    2.2173226    2.1898862   0.33961473 -0.010418847  -0.12114035  0.068131755    1.2905356     1.921767    1.9077004  0.042139303  -0.01155855  -0.11905462  0.063343052    1.4250681     1.447742   0.70733708  0.066666667    1.4545417        0.001 0.00017683427    5.6550124    2.5006199    30.403515 0.0054544168  -0.16257431 -0.0044549982    0.2142736 0.0054544168  -0.16257431 -0.0044549982    0.2142736 
 4996000    4.1779293    1.2858613     2.892068   -0.2252491   0.85733231    1.0210216     0.755469   -1.2465374            1    1.5076226    2.1487045    2.1118003   0.26236302 -0.00073487117   0.03200291  -0.02022337    1.2138886    1.8591592     1.820396 -0.037889298 -0.0019307985  0.032721171 -0.021754545    1.3481807    1.3733305   0.71259722  0.066666667    1.4573154        0.001 0.00017814931    5.6132692    2.5023688    30.403515 0.0022561238  -0.20832681 0.0009064792   0.21089438 0.0022561238  -0.20832681 0.0009064792   0.21089438 
 4997000    4.1633142    1.2613357    2.9019785  -0.22198495   0.84098017    1.0145968   0.73292732   -1.2465374            1    1.5821492    2.1839965     2.203889   0.35856216  0.013348436  -0.06533991 -0.054798659    1.2940177    1.9003714    1.9130197  0.068662035  0.017109836    -0.064847 -0.054658122    1.4274648    1.4487022   0.70767304  0.066666667     1.465566        0.001 0.00017691826    5.6523278    2.5086993    30.403515 0.0037791016  -0.19176394 -0.0072068589   0.18850256 0.0037791016  -0.19176394 -0.0072068589   0.18850256 
 4998000    4.1667015    1.2779242    2.8887773  -0.21840518   0.85204037    1.0061058   0.75617378   -1.2465374            1    1.5157373    2.1568236    2.1435282   0.24686024 -0.012389725  -0.13318519 -0.010922332    1.2238164    1.8600425    1.8527754 -0.041368533 -0.017551231  -0.12536698 -0.0017402654    1.3561467     1.383407   0.70065514  0.066666667    1.4604075        0.001 0.00017516378    5.7089427    2.5000122    30.403515 -0.0014241349   -0.2068946 0.0099523856   0.19330081 -0.0014241349   -0.2068946 0.0099523856   0.19330081 
 4999000    4.1783166    1.2619834    2.9163332   -0.2193881   0.84141199   0.97071946   0.76097283   -1.2465374            1    1.6570567    2.2561223    2.2382368   0.47681112 -0.0052787111 -0.042698973  0.011421894    1.3687773    1.9659327    1.9492661   0.19113315 -0.00078876727 -0.042915966 0.0067322566    1.4964533    1.5293807   0.71075804  0.066666667    1.4654101        0.001 0.00017768951    5.6277942    2.4961962    30.403515  0.015881603  -0.21437757 0.0025459117   0.20360267  0.015881603  -0.21437757 0.0025459117   0.20360267 
 5000000    4.1501892    1.2476164    2.9025728  -0.22368413   0.83183299   0.97828954   0.74070479   -1.2465374            1     1.581706    2.2083376    2.1977957   0.33898476 -0.0003218586 -0.088111169  0.014634859    1.2967085    1.9108351    1.9201593  0.059131147 -0.00070585866 -0.091927001  0.015055102    1.4253802    1.4530344   0.70896415  0.066666667    1.4628935        0.001 0.00017724104    5.6420343    2.4994152    30.403515  0.010296031  -0.16057732 -0.006690877    0.1947636  0.010296031  -0.16057732 -0.006690877    0.1947636 
Loop time of 6141.99 on 1 procs for 4000000 steps with 9376 atoms

Performance: 281341.862 tau/day, 651.254 timesteps/s
99.6% CPU use with 1 MPI tasks x 1 OpenMP threads

MPI task timing breakdown:
Section |  min time  |  avg time  |  max time  |%varavg| %total
---------------------------------------------------------------
Pair    | 609.64     | 609.64     | 609.64     |   0.0 |  9.93
Bond    | 1305.2     | 1305.2     | 1305.2     |   0.0 | 21.25
Neigh   | 1853.8     | 1853.8     | 1853.8     |   0.0 | 30.18
Comm    | 100.65     | 100.65     | 100.65     |   0.0 |  1.64
Output  | 6.5877     | 6.5877     | 6.5877     |   0.0 |  0.11
Modify  | 2152.6     | 2152.6     | 2152.6     |   0.0 | 35.05
Other   |            | 113.5      |            |       |  1.85

Nlocal:    9376 ave 9376 max 9376 min
Histogram: 1 0 0 0 0 0 0 0 0 0
Nghost:    1772 ave 1772 max 1772 min
Histogram: 1 0 0 0 0 0 0 0 0 0
Neighs:    13443 ave 13443 max 13443 min
Histogram: 1 0 0 0 0 0 0 0 0 0

Total # of neighbors = 13443
Ave neighs/atom = 1.43377
Ave special neighs/atom = 6.92833
Neighbor list builds = 551412
Dangerous builds = 0

#--- Write Restart File ---#

write_restart  ecs.rst
WARNING: compute stress/mop/profile does not account for bond potentials (src/USER-MISC/compute_stress_mop_profile.cpp:193)
WARNING: compute stress/mop/profile does not account for bond potentials (src/USER-MISC/compute_stress_mop_profile.cpp:193)
WARNING: compute stress/mop/profile does not account for bond potentials (src/USER-MISC/compute_stress_mop_profile.cpp:193)
shell          python post.py
shell          mkdir $(v_Vwalli)_V
shell          mkdir 