9376
Atoms. Timestep: 4000000
1 7.5 3.55271e-15 10.6135
1 8.2937 29.2063 10.6135
1 8.31645 29.927 9.77062
1 7.58039 29.1687 9.77903
1 9.0874 3.55271e-15 10.6135
1 9.8811 29.2063 10.6135
1 9.86803 29.9376 9.76205
1 9.10065 29.1619 9.81649
1 10.6748 3.55271e-15 10.6135
1 11.4685 29.2063 10.6135
1 11.4671 29.9358 9.77774
1 10.6406 29.1866 9.83506
1 12.2622 3.55271e-15 10.6135
1 13.0559 29.2063 10.6135
1 13.0333 29.9297 9.79965
1 12.261 29.1856 9.8123
1 13.8496 3.55271e-15 10.6135
1 14.6433 29.2063 10.6135
1 14.6444 29.9376 9.80057
1 13.8489 29.1736 9.80527
1 15.437 3.55271e-15 10.6135
1 16.2307 29.2063 10.6135
1 16.2394 29.9241 9.77853
1 15.4347 29.1703 9.81526
1 17.0244 3.55271e-15 10.6135
1 17.8181 29.2063 10.6135
1 17.8036 29.9382 9.77099
1 17.0359 29.1598 9.78571
1 18.6118 3.55271e-15 10.6135
1 19.4055 29.2063 10.6135
1 19.3945 29.9345 9.81313
1 18.5988 29.1915 9.8034
1 20.1992 3.55271e-15 10.6135
1 20.9929 29.2063 10.6135
1 20.9963 29.9452 9.77516
1 20.2028 29.1745 9.80629
1 21.7866 3.55271e-15 10.6135
1 22.5803 29.2063 10.6135
1 22.5753 29.9267 9.79775
1 21.7852 29.1883 9.80595
1 23.374 3.55271e-15 10.6135
1 24.1677 29.2063 10.6135
1 24.1596 29.9183 9.78578
1 23.3706 29.1795 9.79127
1 24.9614 3.55271e-15 10.6135
1 25.7551 29.2063 10.6135
1 25.7669 29.9489 9.77413
1 24.9754 29.1696 9.80519
1 26.5488 3.55271e-15 10.6135
1 27.3425 29.2063 10.6135
1 27.3434 29.9046 9.76956
1 26.5518 29.172 9.81147
1 28.1362 3.55271e-15 10.6135
1 28.9299 29.2063 10.6135
1 28.9458 29.9493 9.78798
1 28.1464 29.1901 9.81012
1 29.7236 3.55271e-15 10.6135
1 0.517315 29.2063 10.6135
1 0.511564 29.9236 9.78217
1 29.722 29.1915 9.79189
1 1.31102 3.55271e-15 10.6135
1 2.10472 29.2063 10.6135
1 2.11973 29.9216 9.804
1 1.32734 29.1793 9.8254
1 2.89842 3.55271e-15 10.6135
1 3.69212 29.2063 10.6135
1 3.69157 29.8972 9.77144
1 2.87727 29.1645 9.85202
1 4.48582 3.55271e-15 10.6135
1 5.27952 29.2063 10.6135
1 5.25956 29.9423 9.78786
1 4.49265 29.1966 9.79713
1 6.07322 3.55271e-15 10.6135
1 6.86692 29.2063 10.6135
1 6.80529 29.9203 9.75727
1 6.03794 29.1918 9.79272
1 7.5 28.4126 10.6135
1 8.2937 27.6189 10.6135
1 8.32043 28.4161 9.79349
1 7.57502 27.6286 9.80379
1 9.0874 28.4126 10.6135
1 9.8811 27.6189 10.6135
1 9.89522 28.3932 9.81143
1 9.09618 27.6187 9.80337
1 10.6748 28.4126 10.6135
1 11.4685 27.6189 10.6135
1 11.4763 28.4052 9.82039
1 10.6913 27.6256 9.84569
1 12.2622 28.4126 10.6135
1 13.0559 27.6189 10.6135
1 13.0648 28.4053 9.84005
1 12.2552 27.5819 9.83163
1 13.8496 28.4126 10.6135
1 14.6433 27.6189 10.6135
1 14.642 28.3884 9.79784
1 13.855 27.6013 9.80988
1 15.437 28.4126 10.6135
1 16.2307 27.6189 10.6135
1 16.2122 28.4131 9.80575
1 15.4411 27.623 9.82192
1 17.0244 28.4126 10.6135
1 17.8181 27.6189 10.6135
1 17.8288 28.3855 9.80396
1 17.0214 27.6067 9.81528
1 18.6118 28.4126 10.6135
1 19.4055 27.6189 10.6135
1 19.4032 28.4108 9.82187
1 18.6076 27.6013 9.81697
1 20.1992 28.4126 10.6135
1 20.9929 27.6189 10.6135
1 21.0083 28.3939 9.80473
1 20.1817 27.5724 9.83362
1 21.7866 28.4126 10.6135
1 22.5803 27.6189 10.6135
1 22.5758 28.3529 9.81708
1 21.7709 27.5982 9.83155
1 23.374 28.4126 10.6135
1 24.1677 27.6189 10.6135
1 24.1804 28.4084 9.797
1 23.3789 27.6155 9.82024
1 24.9614 28.4126 10.6135
1 25.7551 27.6189 10.6135
1 25.7431 28.4085 9.85112
1 24.9799 27.6117 9.81224
1 26.5488 28.4126 10.6135
1 27.3425 27.6189 10.6135
1 27.358 28.4136 9.83281
1 26.5223 27.6428 9.8314
1 28.1362 28.4126 10.6135
1 28.9299 27.6189 10.6135
1 28.9397 28.3904 9.79593
1 28.1235 27.6167 9.78608
1 29.7236 28.4126 10.6135
1 0.517315 27.6189 10.6135
1 0.516943 28.4034 9.8303
1 29.7148 27.5876 9.81376
1 1.31102 28.4126 10.6135
1 2.10472 27.6189 10.6135
1 2.12376 28.3733 9.82987
1 1.29461 27.625 9.83181
1 2.89842 28.4126 10.6135
1 3.69212 27.6189 10.6135
1 3.69252 28.3888 9.82082
1 2.91546 27.6234 9.83226
1 4.48582 28.4126 10.6135
1 5.27952 27.6189 10.6135
1 5.26549 28.3885 9.8088
1 4.46804 27.598 9.81137
1 6.07322 28.4126 10.6135
1 6.86692 27.6189 10.6135
1 6.7831 28.3821 9.80695
1 6.0371 27.5988 9.84284
1 7.5 26.8252 10.6135
1 8.2937 26.0315 10.6135
1 8.30206 26.8357 9.8114
1 7.55008 26.0499 9.77715
1 9.0874 26.8252 10.6135
1 9.8811 26.0315 10.6135
1 9.90154 26.8285 9.82103
1 9.10736 26.0521 9.83683
1 10.6748 26.8252 10.6135
1 11.4685 26.0315 10.6135
1 11.4575 26.8025 9.81355
1 10.6809 26.0011 9.83661
1 12.2622 26.8252 10.6135
1 13.0559 26.0315 10.6135
1 13.0485 26.8252 9.83497
1 12.2703 26.0003 9.81472
1 13.8496 26.8252 10.6135
1 14.6433 26.0315 10.6135
1 14.6396 26.8266 9.82473
1 13.8709 26.0405 9.84092
1 15.437 26.8252 10.6135
1 16.2307 26.0315 10.6135
1 16.2223 26.8257 9.81194
1 15.4503 26.024 9.79167
1 17.0244 26.8252 10.6135
1 17.8181 26.0315 10.6135
1 17.8293 26.806 9.82465
1 17.036 26.0218 9.82613
1 18.6118 26.8252 10.6135
1 19.4055 26.0315 10.6135
1 19.3948 26.8178 9.84087
1 18.6069 25.9834 9.81829
1 20.1992 26.8252 10.6135
1 20.9929 26.0315 10.6135
1 20.9802 26.8059 9.82288
1 20.1859 26.037 9.8331
1 21.7866 26.8252 10.6135
1 22.5803 26.0315 10.6135
1 22.5653 26.8152 9.83395
1 21.796 26.0196 9.8385
1 23.374 26.8252 10.6135
1 24.1677 26.0315 10.6135
1 24.169 26.8161 9.83272
1 23.3871 26.0213 9.80858
1 24.9614 26.8252 10.6135
1 25.7551 26.0315 10.6135
1 25.7201 26.8081 9.83854
1 24.9765 26.0343 9.84005
1 26.5488 26.8252 10.6135
1 27.3425 26.0315 10.6135
1 27.3493 26.7993 9.81543
1 26.5458 26.0298 9.84596
1 28.1362 26.8252 10.6135
1 28.9299 26.0315 10.6135
1 28.933 26.8111 9.83292
1 28.1451 26.0325 9.80895
1 29.7236 26.8252 10.6135
1 0.517315 26.0315 10.6135
1 0.493012 26.8424 9.81225
1 29.6929 26.031 9.8351
1 1.31102 26.8252 10.6135
1 2.10472 26.0315 10.6135
1 2.08699 26.8531 9.81811
1 1.28962 26.0363 9.84513
1 2.89842 26.8252 10.6135
1 3.69212 26.0315 10.6135
1 3.69853 26.8193 9.83302
1 2.88837 26.0577 9.82955
1 4.48582 26.8252 10.6135
1 5.27952 26.0315 10.6135
1 5.27751 26.8144 9.81493
1 4.47334 26.0035 9.80477
1 6.07322 26.8252 10.6135
1 6.86692 26.0315 10.6135
1 6.81852 26.8449 9.77297
1 6.06297 26.0233 9.7763
1 7.5 25.2378 10.6135
1 8.2937 24.4441 10.6135
1 8.32523 25.2601 9.8006
1 7.57806 24.453 9.77992
1 9.0874 25.2378 10.6135
1 9.8811 24.4441 10.6135
1 9.89521 25.2428 9.81111
1 9.09377 24.4406 9.85139
1 10.6748 25.2378 10.6135
1 11.4685 24.4441 10.6135
1 11.4714 25.204 9.82538
1 10.6638 24.4289 9.83177
1 12.2622 25.2378 10.6135
1 13.0559 24.4441 10.6135
1 13.0891 25.2314 9.83662
1 12.2802 24.4326 9.83818
1 13.8496 25.2378 10.6135
1 14.6433 24.4441 10.6135
1 14.6561 25.2355 9.81015
1 13.8408 24.425 9.82624
1 15.437 25.2378 10.6135
1 16.2307 24.4441 10.6135
1 16.207 25.2527 9.84396
1 15.4152 24.45 9.80347
1 17.0244 25.2378 10.6135
1 17.8181 24.4441 10.6135
1 17.8109 25.2419 9.8152
1 17.008 24.4474 9.81811
1 18.6118 25.2378 10.6135
1 19.4055 24.4441 10.6135
1 19.4156 25.2272 9.79614
1 18.602 24.4457 9.81315
1 20.1992 25.2378 10.6135
1 20.9929 24.4441 10.6135
1 20.9485 25.229 9.82842
1 20.1817 24.427 9.78752
1 21.7866 25.2378 10.6135
1 22.5803 24.4441 10.6135
1 22.578 25.2172 9.79634
1 21.7708 24.4313 9.82795
1 23.374 25.2378 10.6135
1 24.1677 24.4441 10.6135
1 24.1581 25.2438 9.80041
1 23.3716 24.4325 9.82072
1 24.9614 25.2378 10.6135
1 25.7551 24.4441 10.6135
1 25.7554 25.262 9.81362
1 24.9748 24.448 9.79283
1 26.5488 25.2378 10.6135
1 27.3425 24.4441 10.6135
1 27.3379 25.2342 9.81248
1 26.5439 24.4679 9.80854
1 28.1362 25.2378 10.6135
1 28.9299 24.4441 10.6135
1 28.9242 25.23 9.81885
1 28.1273 24.4162 9.81868
1 29.7236 25.2378 10.6135
1 0.517315 24.4441 10.6135
1 0.493332 25.2496 9.82627
1 29.7104 24.4372 9.80654
1 1.31102 25.2378 10.6135
1 2.10472 24.4441 10.6135
1 2.1249 25.2457 9.82703
1 1.30233 24.4082 9.84357
1 2.89842 25.2378 10.6135
1 3.69212 24.4441 10.6135
1 3.67923 25.2541 9.81758
1 2.89277 24.4453 9.82111
1 4.48582 25.2378 10.6135
1 5.27952 24.4441 10.6135
1 5.26456 25.2421 9.7912
1 4.47508 24.4404 9.82174
1 6.07322 25.2378 10.6135
1 6.86692 24.4441 10.6135
1 6.78339 25.2443 9.7932
1 6.05002 24.4584 9.82826
1 7.5 23.6504 10.6135
1 8.2937 22.8567 10.6135
1 8.31311 23.6383 9.81477
1 7.5649 22.8577 9.7918
1 9.0874 23.6504 10.6135
1 9.8811 22.8567 10.6135
1 9.88448 23.6457 9.85357
1 9.09139 22.8623 9.81506
1 10.6748 23.6504 10.6135
1 11.4685 22.8567 10.6135
1 11.4755 23.6472 9.82805
1 10.6858 22.8571 9.8204
1 12.2622 23.6504 10.6135
1 13.0559 22.8567 10.6135
1 13.0697 23.6494 9.81516
1 12.26 22.8773 9.81306
1 13.8496 23.6504 10.6135
1 14.6433 22.8567 10.6135
1 14.6374 23.6492 9.81927
1 13.8602 22.8525 9.82143
1 15.437 23.6504 10.6135
1 16.2307 22.8567 10.6135
1 16.2252 23.6637 9.82007
1 15.4214 22.8396 9.81509
1 17.0244 23.6504 10.6135
1 17.8181 22.8567 10.6135
1 17.7988 23.6433 9.80883
1 17.0069 22.8594 9.83128
1 18.6118 23.6504 10.6135
1 19.4055 22.8567 10.6135
1 19.3997 23.642 9.79645
1 18.608 22.851 9.81516
1 20.1992 23.6504 10.6135
1 20.9929 22.8567 10.6135
1 20.9791 23.6476 9.81183
1 20.1882 22.8338 9.81662
1 21.7866 23.6504 10.6135
1 22.5803 22.8567 10.6135
1 22.6007 23.6373 9.81396
1 21.7559 22.8664 9.80228
1 23.374 23.6504 10.6135
1 24.1677 22.8567 10.6135
1 24.1565 23.6557 9.83054
1 23.368 22.8616 9.80506
1 24.9614 23.6504 10.6135
1 25.7551 22.8567 10.6135
1 25.7571 23.6651 9.80627
1 24.9596 22.8569 9.83609
1 26.5488 23.6504 10.6135
1 27.3425 22.8567 10.6135
1 27.3383 23.6582 9.79874
1 26.5255 22.8536 9.83206
1 28.1362 23.6504 10.6135
1 28.9299 22.8567 10.6135
1 28.9237 23.6359 9.82509
1 28.1484 22.8548 9.8363
1 29.7236 23.6504 10.6135
1 0.517315 22.8567 10.6135
1 0.526399 23.6407 9.83743
1 29.7238 22.8382 9.85296
1 1.31102 23.6504 10.6135
1 2.10472 22.8567 10.6135
1 2.10715 23.6409 9.83989
1 1.28914 22.8663 9.82529
1 2.89842 23.6504 10.6135
1 3.69212 22.8567 10.6135
1 3.68981 23.6445 9.79207
1 2.88713 22.8537 9.83466
1 4.48582 23.6504 10.6135
1 5.27952 22.8567 10.6135
1 5.24971 23.6765 9.81654
1 4.49012 22.8409 9.79002
1 6.07322 23.6504 10.6135
1 6.86692 22.8567 10.6135
1 6.79294 23.6566 9.80182
1 6.04457 22.8648 9.8122
1 7.5 22.063 10.6135
1 8.2937 21.2693 10.6135
1 8.35215 22.0704 9.83396
1 7.58015 21.2619 9.78823
1 9.0874 22.063 10.6135
1 9.8811 21.2693 10.6135
1 9.8801 22.0463 9.83399
1 9.1279 21.2467 9.81575
1 10.6748 22.063 10.6135
1 11.4685 21.2693 10.6135
1 11.4675 22.0663 9.82831
1 10.6949 21.2549 9.82121
1 12.2622 22.063 10.6135
1 13.0559 21.2693 10.6135
1 13.0648 22.0798 9.83358
1 12.2643 21.2537 9.83921
1 13.8496 22.063 10.6135
1 14.6433 21.2693 10.6135
1 14.6452 22.0438 9.80954
1 13.8495 21.2829 9.83186
1 15.437 22.063 10.6135
1 16.2307 21.2693 10.6135
1 16.2299 22.0609 9.80495
1 15.4456 21.2655 9.81129
1 17.0244 22.063 10.6135
1 17.8181 21.2693 10.6135
1 17.8019 22.071 9.84063
1 17.0394 21.2838 9.82646
1 18.6118 22.063 10.6135
1 19.4055 21.2693 10.6135
1 19.4036 22.0429 9.82182
1 18.5922 21.2486 9.82578
1 20.1992 22.063 10.6135
1 20.9929 21.2693 10.6135
1 21.0032 22.0733 9.80311
1 20.1915 21.2668 9.82934
1 21.7866 22.063 10.6135
1 22.5803 21.2693 10.6135
1 22.5769 22.0827 9.80978
1 21.8033 21.2435 9.80844
1 23.374 22.063 10.6135
1 24.1677 21.2693 10.6135
1 24.166 22.0467 9.82666
1 23.3847 21.2917 9.82586
1 24.9614 22.063 10.6135
1 25.7551 21.2693 10.6135
1 25.755 22.0441 9.83759
1 24.9641 21.2752 9.80926
1 26.5488 22.063 10.6135
1 27.3425 21.2693 10.6135
1 27.3451 22.0709 9.79309
1 26.5457 21.2559 9.82755
1 28.1362 22.063 10.6135
1 28.9299 21.2693 10.6135
1 28.9352 22.0653 9.81154
1 28.158 21.257 9.82087
1 29.7236 22.063 10.6135
1 0.517315 21.2693 10.6135
1 0.505436 22.0383 9.82469
1 29.701 21.2781 9.81265
1 1.31102 22.063 10.6135
1 2.10472 21.2693 10.6135
1 2.09563 22.0725 9.84487
1 1.31973 21.2718 9.81689
1 2.89842 22.063 10.6135
1 3.69212 21.2693 10.6135
1 3.6741 22.0728 9.82605
1 2.90881 21.2667 9.81431
1 4.48582 22.063 10.6135
1 5.27952 21.2693 10.6135
1 5.27396 22.0656 9.8049
1 4.47662 21.2654 9.81222
1 6.07322 22.063 10.6135
1 6.86692 21.2693 10.6135
1 6.79899 22.0601 9.79397
1 6.0237 21.2614 9.83474
1 7.5 20.4756 10.6135
1 8.2937 19.6819 10.6135
1 8.34476 20.4626 9.81571
1 7.58338 19.682 9.79529
1 9.0874 20.4756 10.6135
1 9.8811 19.6819 10.6135
1 9.90503 20.4627 9.81809
1 9.10368 19.6841 9.83567
1 10.6748 20.4756 10.6135
1 11.4685 19.6819 10.6135
1 11.4837 20.4729 9.84522
1 10.6915 19.6711 9.83034
1 12.2622 20.4756 10.6135
1 13.0559 19.6819 10.6135
1 13.0796 20.4723 9.81475
1 12.2659 19.6945 9.81536
1 13.8496 20.4756 10.6135
1 14.6433 19.6819 10.6135
1 14.6758 20.4924 9.82038
1 13.8366 19.6919 9.82312
1 15.437 20.4756 10.6135
1 16.2307 19.6819 10.6135
1 16.2452 20.4732 9.79062
1 15.4338 19.6804 9.82141
1 17.0244 20.4756 10.6135
1 17.8181 19.6819 10.6135
1 17.8104 20.4453 9.83638
1 17.0372 19.653 9.80719
1 18.6118 20.4756 10.6135
1 19.4055 19.6819 10.6135
1 19.4245 20.4827 9.80954
1 18.6227 19.6869 9.80329
1 20.1992 20.4756 10.6135
1 20.9929 19.6819 10.6135
1 20.9871 20.477 9.84417
1 20.1974 19.6849 9.81958
1 21.7866 20.4756 10.6135
1 22.5803 19.6819 10.6135
1 22.5812 20.4624 9.80908
1 21.7814 19.7081 9.81068
1 23.374 20.4756 10.6135
1 24.1677 19.6819 10.6135
1 24.1581 20.4807 9.83478
1 23.3794 19.6929 9.81825
1 24.9614 20.4756 10.6135
1 25.7551 19.6819 10.6135
1 25.7603 20.4712 9.83017
1 24.9619 19.6964 9.81438
1 26.5488 20.4756 10.6135
1 27.3425 19.6819 10.6135
1 27.3376 20.482 9.80933
1 26.5496 19.6604 9.84581
1 28.1362 20.4756 10.6135
1 28.9299 19.6819 10.6135
1 28.9326 20.4821 9.81234
1 28.135 19.691 9.80665
1 29.7236 20.4756 10.6135
1 0.517315 19.6819 10.6135
1 0.501625 20.5009 9.82114
1 29.7221 19.6866 9.80686
1 1.31102 20.4756 10.6135
1 2.10472 19.6819 10.6135
1 2.09153 20.4467 9.80973
1 1.3054 19.6921 9.83447
1 2.89842 20.4756 10.6135
1 3.69212 19.6819 10.6135
1 3.69215 20.4547 9.81126
1 2.91811 19.6608 9.81971
1 4.48582 20.4756 10.6135
1 5.27952 19.6819 10.6135
1 5.26089 20.4665 9.81126
1 4.49425 19.6681 9.8233
1 6.07322 20.4756 10.6135
1 6.86692 19.6819 10.6135
1 6.81676 20.4682 9.80466
1 6.05168 19.6902 9.81164
1 7.5 18.8882 10.6135
1 8.2937 18.0945 10.6135
1 8.34345 18.8809 9.81092
1 7.58419 18.1252 9.79759
1 9.0874 18.8882 10.6135
1 9.8811 18.0945 10.6135
1 9.86938 18.9046 9.84561
1 9.11723 18.0757 9.80843
1 10.6748 18.8882 10.6135
1 11.4685 18.0945 10.6135
1 11.4792 18.8781 9.83607
1 10.7185 18.1116 9.81721
1 12.2622 18.8882 10.6135
1 13.0559 18.0945 10.6135
1 13.0758 18.868 9.81906
1 12.2676 18.0954 9.8129
1 13.8496 18.8882 10.6135
1 14.6433 18.0945 10.6135
1 14.6713 18.89 9.77761
1 13.8545 18.0951 9.82478
1 15.437 18.8882 10.6135
1 16.2307 18.0945 10.6135
1 16.2355 18.8848 9.81167
1 15.4468 18.0794 9.79157
1 17.0244 18.8882 10.6135
1 17.8181 18.0945 10.6135
1 17.8197 18.8722 9.79977
1 17.0226 18.0964 9.78542
1 18.6118 18.8882 10.6135
1 19.4055 18.0945 10.6135
1 19.3897 18.8962 9.82167
1 18.5978 18.1147 9.807
1 20.1992 18.8882 10.6135
1 20.9929 18.0945 10.6135
1 21.0024 18.8895 9.8243
1 20.2135 18.0877 9.82009
1 21.7866 18.8882 10.6135
1 22.5803 18.0945 10.6135
1 22.5596 18.8813 9.81984
1 21.7551 18.0844 9.82957
1 23.374 18.8882 10.6135
1 24.1677 18.0945 10.6135
1 24.1643 18.9003 9.80265
1 23.3679 18.0955 9.81145
1 24.9614 18.8882 10.6135
1 25.7551 18.0945 10.6135
1 25.7638 18.9063 9.83467
1 24.9526 18.0858 9.82333
1 26.5488 18.8882 10.6135
1 27.3425 18.0945 10.6135
1 27.3394 18.8761 9.79826
1 26.5618 18.0942 9.82616
1 28.1362 18.8882 10.6135
1 28.9299 18.0945 10.6135
1 28.9495 18.8917 9.8098
1 28.1662 18.1166 9.80371
1 29.7236 18.8882 10.6135
1 0.517315 18.0945 10.6135
1 0.53675 18.8776 9.81775
1 29.7071 18.0829 9.84076
1 1.31102 18.8882 10.6135
1 2.10472 18.0945 10.6135
1 2.07576 18.879 9.80383
1 1.31509 18.0999 9.8027
1 2.89842 18.8882 10.6135
1 3.69212 18.0945 10.6135
1 3.70565 18.8971 9.80892
1 2.90676 18.1294 9.83927
1 4.48582 18.8882 10.6135
1 5.27952 18.0945 10.6135
1 5.27893 18.874 9.81518
1 4.49533 18.0988 9.80443
1 6.07322 18.8882 10.6135
1 6.86692 18.0945 10.6135
1 6.81224 18.9139 9.78371
1 6.05422 18.1093 9.80822
1 7.5 17.3008 10.6135
1 8.2937 16.5071 10.6135
1 8.31506 17.317 9.8136
1 7.5644 16.5247 9.79818
1 9.0874 17.3008 10.6135
1 9.8811 16.5071 10.6135
1 9.89804 17.3213 9.81238
1 9.12819 16.5356 9.81871
1 10.6748 17.3008 10.6135
1 11.4685 16.5071 10.6135
1 11.4897 17.3113 9.81525
1 10.6791 16.5192 9.82156
1 12.2622 17.3008 10.6135
1 13.0559 16.5071 10.6135
1 13.0623 17.2966 9.80044
1 12.2688 16.5185 9.8128
1 13.8496 17.3008 10.6135
1 14.6433 16.5071 10.6135
1 14.6464 17.3197 9.82884
1 13.8596 16.5058 9.82831
1 15.437 17.3008 10.6135
1 16.2307 16.5071 10.6135
1 16.2435 17.3052 9.81848
1 15.4641 16.4974 9.80645
1 17.0244 17.3008 10.6135
1 17.8181 16.5071 10.6135
1 17.8436 17.2818 9.82203
1 17.0281 16.5088 9.81432
1 18.6118 17.3008 10.6135
1 19.4055 16.5071 10.6135
1 19.3895 17.3065 9.8058
1 18.6066 16.4871 9.80653
1 20.1992 17.3008 10.6135
1 20.9929 16.5071 10.6135
1 20.9765 17.2965 9.81093
1 20.2066 16.5088 9.79968
1 21.7866 17.3008 10.6135
1 22.5803 16.5071 10.6135
1 22.5864 17.2914 9.83027
1 21.7967 16.5261 9.83806
1 23.374 17.3008 10.6135
1 24.1677 16.5071 10.6135
1 24.1467 17.2969 9.84206
1 23.3863 16.4938 9.823
1 24.9614 17.3008 10.6135
1 25.7551 16.5071 10.6135
1 25.7818 17.2687 9.8303
1 24.9475 16.514 9.79494
1 26.5488 17.3008 10.6135
1 27.3425 16.5071 10.6135
1 27.3706 17.3155 9.82065
1 26.5997 16.4966 9.82257
1 28.1362 17.3008 10.6135
1 28.9299 16.5071 10.6135
1 28.9381 17.2961 9.82842
1 28.1466 16.5093 9.82179
1 29.7236 17.3008 10.6135
1 0.517315 16.5071 10.6135
1 0.521044 17.3133 9.81346
1 29.7106 16.5129 9.82885
1 1.31102 17.3008 10.6135
1 2.10472 16.5071 10.6135
1 2.12498 17.321 9.81194
1 1.32407 16.5291 9.83552
1 2.89842 17.3008 10.6135
1 3.69212 16.5071 10.6135
1 3.68401 17.3125 9.81624
1 2.9101 16.4924 9.81322
1 4.48582 17.3008 10.6135
1 5.27952 16.5071 10.6135
1 5.27643 17.3163 9.8345
1 4.4545 16.5159 9.83478
1 6.07322 17.3008 10.6135
1 6.86692 16.5071 10.6135
1 6.82593 17.3289 9.78631
1 6.07023 16.5243 9.81545
1 7.5 15.7134 10.6135
1 8.2937 14.9197 10.6135
1 8.3197 15.7287 9.8062
1 7.56457 14.9028 9.80667
1 9.0874 15.7134 10.6135
1 9.8811 14.9197 10.6135
1 9.88893 15.7333 9.80722
1 9.09736 14.914 9.81116
1 10.6748 15.7134 10.6135
1 11.4685 14.9197 10.6135
1 11.4627 15.7138 9.82561
1 10.696 14.9108 9.82191
1 12.2622 15.7134 10.6135
1 13.0559 14.9197 10.6135
1 13.0568 15.7085 9.80526
1 12.2645 14.918 9.81118
1 13.8496 15.7134 10.6135
1 14.6433 14.9197 10.6135
1 14.6575 15.6817 9.81447
1 13.8516 14.8921 9.81806
1 15.437 15.7134 10.6135
1 16.2307 14.9197 10.6135
1 16.2394 15.7232 9.83889
1 15.4395 14.9432 9.81902
1 17.0244 15.7134 10.6135
1 17.8181 14.9197 10.6135
1 17.8573 15.7168 9.81051
1 17.035 14.9264 9.83043
1 18.6118 15.7134 10.6135
1 19.4055 14.9197 10.6135
1 19.4211 15.7089 9.81452
1 18.6264 14.9029 9.82885
1 20.1992 15.7134 10.6135
1 20.9929 14.9197 10.6135
1 21.004 15.7262 9.82879
1 20.1812 14.9309 9.82897
1 21.7866 15.7134 10.6135
1 22.5803 14.9197 10.6135
1 22.5756 15.7082 9.80655
1 21.783 14.9091 9.82304
1 23.374 15.7134 10.6135
1 24.1677 14.9197 10.6135
1 24.1592 15.6939 9.83405
1 23.3597 14.8959 9.84157
1 24.9614 15.7134 10.6135
1 25.7551 14.9197 10.6135
1 25.7587 15.7342 9.83338
1 24.9732 14.9177 9.82203
1 26.5488 15.7134 10.6135
1 27.3425 14.9197 10.6135
1 27.3425 15.6816 9.79172
1 26.5565 14.9035 9.82631
1 28.1362 15.7134 10.6135
1 28.9299 14.9197 10.6135
1 28.953 15.7043 9.80364
1 28.1412 14.9188 9.80761
1 29.7236 15.7134 10.6135
1 0.517315 14.9197 10.6135
1 0.504742 15.7286 9.81501
1 29.7086 14.9376 9.82862
1 1.31102 15.7134 10.6135
1 2.10472 14.9197 10.6135
1 2.10849 15.7322 9.83079
1 1.3035 14.9388 9.80797
1 2.89842 15.7134 10.6135
1 3.69212 14.9197 10.6135
1 3.70757 15.7015 9.81396
1 2.89166 14.9239 9.81717
1 4.48582 15.7134 10.6135
1 5.27952 14.9197 10.6135
1 5.27492 15.7069 9.80479
1 4.45274 14.9032 9.84792
1 6.07322 15.7134 10.6135
1 6.86692 14.9197 10.6135
1 6.80598 15.7316 9.79429
1 6.02945 14.9183 9.80484
1 7.5 14.126 10.6135
1 8.2937 13.3323 10.6135
1 8.31431 14.1275 9.82397
1 7.55316 13.3426 9.77319
1 9.0874 14.126 10.6135
1 9.8811 13.3323 10.6135
1 9.89694 14.1107 9.8171
1 9.1048 13.3264 9.84617
1 10.6748 14.126 10.6135
1 11.4685 13.3323 10.6135
1 11.4905 14.1332 9.81551
1 10.6957 13.3374 9.82907
1 12.2622 14.126 10.6135
1 13.0559 13.3323 10.6135
1 13.0409 14.1396 9.80269
1 12.266 13.3267 9.81383
1 13.8496 14.126 10.6135
1 14.6433 13.3323 10.6135
1 14.667 14.1305 9.80807
1 13.8661 13.3492 9.81859
1 15.437 14.126 10.6135
1 16.2307 13.3323 10.6135
1 16.2133 14.1167 9.82256
1 15.4475 13.3507 9.80982
1 17.0244 14.126 10.6135
1 17.8181 13.3323 10.6135
1 17.8146 14.1271 9.80437
1 17.0156 13.3356 9.84523
1 18.6118 14.126 10.6135
1 19.4055 13.3323 10.6135
1 19.3971 14.1211 9.82641
1 18.6149 13.3327 9.8076
1 20.1992 14.126 10.6135
1 20.9929 13.3323 10.6135
1 20.9939 14.1385 9.80583
1 20.1993 13.3114 9.82048
1 21.7866 14.126 10.6135
1 22.5803 13.3323 10.6135
1 22.5757 14.1439 9.84578
1 21.7802 13.347 9.80692
1 23.374 14.126 10.6135
1 24.1677 13.3323 10.6135
1 24.1937 14.1113 9.82601
1 23.3593 13.3565 9.80692
1 24.9614 14.126 10.6135
1 25.7551 13.3323 10.6135
1 25.7749 14.1282 9.8303
1 24.9588 13.3336 9.81178
1 26.5488 14.126 10.6135
1 27.3425 13.3323 10.6135
1 27.3437 14.119 9.80184
1 26.5561 13.3237 9.82258
1 28.1362 14.126 10.6135
1 28.9299 13.3323 10.6135
1 28.9253 14.1377 9.82917
1 28.1302 13.3079 9.79733
1 29.7236 14.126 10.6135
1 0.517315 13.3323 10.6135
1 0.497693 14.1218 9.81843
1 29.7254 13.3374 9.84551
1 1.31102 14.126 10.6135
1 2.10472 13.3323 10.6135
1 2.10321 14.1285 9.80344
1 1.31092 13.3578 9.8127
1 2.89842 14.126 10.6135
1 3.69212 13.3323 10.6135
1 3.67056 14.1232 9.804
1 2.89466 13.3374 9.83418
1 4.48582 14.126 10.6135
1 5.27952 13.3323 10.6135
1 5.25777 14.1062 9.80829
1 4.46185 13.3589 9.80695
1 6.07322 14.126 10.6135
1 6.86692 13.3323 10.6135
1 6.8024 14.1239 9.78586
1 6.03823 13.3309 9.81198
1 7.5 12.5386 10.6135
1 8.2937 11.7449 10.6135
1 8.34226 12.5397 9.81002
1 7.5785 11.7374 9.78803
1 9.0874 12.5386 10.6135
1 9.8811 11.7449 10.6135
1 9.89964 12.529 9.80367
1 9.11074 11.7481 9.8183
1 10.6748 12.5386 10.6135
1 11.4685 11.7449 10.6135
1 11.4711 12.54 9.84575
1 10.6842 11.7524 9.83814
1 12.2622 12.5386 10.6135
1 13.0559 11.7449 10.6135
1 13.0765 12.5341 9.81599
1 12.2726 11.7435 9.84039
1 13.8496 12.5386 10.6135
1 14.6433 11.7449 10.6135
1 14.6461 12.5421 9.82756
1 13.8497 11.7183 9.82418
1 15.437 12.5386 10.6135
1 16.2307 11.7449 10.6135
1 16.2308 12.5414 9.83001
1 15.4306 11.733 9.83308
1 17.0244 12.5386 10.6135
1 17.8181 11.7449 10.6135
1 17.8539 12.5334 9.81326
1 17.031 11.7307 9.83769
1 18.6118 12.5386 10.6135
1 19.4055 11.7449 10.6135
1 19.4186 12.5292 9.81465
1 18.5977 11.7431 9.80648
1 20.1992 12.5386 10.6135
1 20.9929 11.7449 10.6135
1 20.9984 12.5086 9.82128
1 20.1934 11.7397 9.81209
1 21.7866 12.5386 10.6135
1 22.5803 11.7449 10.6135
1 22.5665 12.547 9.811
1 21.8085 11.747 9.82625
1 23.374 12.5386 10.6135
1 24.1677 11.7449 10.6135
1 24.1384 12.5461 9.84217
1 23.3554 11.7509 9.80795
1 24.9614 12.5386 10.6135
1 25.7551 11.7449 10.6135
1 25.7417 12.5434 9.81593
1 24.9574 11.7688 9.81937
1 26.5488 12.5386 10.6135
1 27.3425 11.7449 10.6135
1 27.3347 12.535 9.82297
1 26.5426 11.7486 9.82235
1 28.1362 12.5386 10.6135
1 28.9299 11.7449 10.6135
1 28.9095 12.545 9.79184
1 28.132 11.7682 9.82777
1 29.7236 12.5386 10.6135
1 0.517315 11.7449 10.6135
1 0.523671 12.5347 9.82055
1 29.7097 11.7786 9.82977
1 1.31102 12.5386 10.6135
1 2.10472 11.7449 10.6135
1 2.10392 12.529 9.80134
1 1.28747 11.7432 9.82263
1 2.89842 12.5386 10.6135
1 3.69212 11.7449 10.6135
1 3.70057 12.5401 9.81215
1 2.90248 11.7367 9.80512
1 4.48582 12.5386 10.6135
1 5.27952 11.7449 10.6135
1 5.24017 12.5306 9.81227
1 4.45653 11.7335 9.83907
1 6.07322 12.5386 10.6135
1 6.86692 11.7449 10.6135
1 6.80017 12.5185 9.79623
1 6.04233 11.74 9.80888
1 7.5 10.9512 10.6135
1 8.2937 10.1575 10.6135
1 8.31833 10.9409 9.80878
1 7.58023 10.1439 9.78325
1 9.0874 10.9512 10.6135
1 9.8811 10.1575 10.6135
1 9.8716 10.9442 9.83598
1 9.09686 10.1496 9.7976
1 10.6748 10.9512 10.6135
1 11.4685 10.1575 10.6135
1 11.4681 10.948 9.82046
1 10.688 10.1709 9.80072
1 12.2622 10.9512 10.6135
1 13.0559 10.1575 10.6135
1 13.049 10.9386 9.81125
1 12.2504 10.1363 9.81661
1 13.8496 10.9512 10.6135
1 14.6433 10.1575 10.6135
1 14.6288 10.9457 9.82471
1 13.8452 10.1552 9.8221
1 15.437 10.9512 10.6135
1 16.2307 10.1575 10.6135
1 16.2472 10.9519 9.83057
1 15.4569 10.1394 9.83562
1 17.0244 10.9512 10.6135
1 17.8181 10.1575 10.6135
1 17.8294 10.9435 9.81741
1 17.0594 10.1419 9.79379
1 18.6118 10.9512 10.6135
1 19.4055 10.1575 10.6135
1 19.3631 10.9512 9.83942
1 18.6003 10.1508 9.8085
1 20.1992 10.9512 10.6135
1 20.9929 10.1575 10.6135
1 21.0098 10.9495 9.84621
1 20.2094 10.1823 9.81459
1 21.7866 10.9512 10.6135
1 22.5803 10.1575 10.6135
1 22.6089 10.966 9.82587
1 21.8124 10.167 9.83754
1 23.374 10.9512 10.6135
1 24.1677 10.1575 10.6135
1 24.1756 10.9526 9.8321
1 23.3795 10.1734 9.82156
1 24.9614 10.9512 10.6135
1 25.7551 10.1575 10.6135
1 25.7689 10.9731 9.86273
1 24.9711 10.1724 9.82557
1 26.5488 10.9512 10.6135
1 27.3425 10.1575 10.6135
1 27.3448 10.9548 9.84236
1 26.5468 10.1635 9.81832
1 28.1362 10.9512 10.6135
1 28.9299 10.1575 10.6135
1 28.9469 10.9533 9.81189
1 28.1514 10.1512 9.82439
1 29.7236 10.9512 10.6135
1 0.517315 10.1575 10.6135
1 0.497431 10.9382 9.83066
1 29.6808 10.1494 9.8397
1 1.31102 10.9512 10.6135
1 2.10472 10.1575 10.6135
1 2.0852 10.9418 9.83238
1 1.30225 10.1625 9.80799
1 2.89842 10.9512 10.6135
1 3.69212 10.1575 10.6135
1 3.69883 10.8997 9.8022
1 2.88019 10.1364 9.80279
1 4.48582 10.9512 10.6135
1 5.27952 10.1575 10.6135
1 5.26231 10.9393 9.80296
1 4.4814 10.1481 9.82616
1 6.07322 10.9512 10.6135
1 6.86692 10.1575 10.6135
1 6.79127 10.9307 9.80957
1 6.03136 10.1588 9.81706
1 7.5 9.36379 10.6135
1 8.2937 8.57009 10.6135
1 8.31813 9.35403 9.81377
1 7.56792 8.56231 9.79589
1 9.0874 9.36379 10.6135
1 9.8811 8.57009 10.6135
1 9.87329 9.34135 9.83177
1 9.09131 8.55042 9.79342
1 10.6748 9.36379 10.6135
1 11.4685 8.57009 10.6135
1 11.4615 9.36636 9.83562
1 10.6781 8.57328 9.81166
1 12.2622 9.36379 10.6135
1 13.0559 8.57009 10.6135
1 13.0655 9.35277 9.81682
1 12.2491 8.59503 9.84396
1 13.8496 9.36379 10.6135
1 14.6433 8.57009 10.6135
1 14.6464 9.32542 9.83855
1 13.8554 8.59223 9.83831
1 15.437 9.36379 10.6135
1 16.2307 8.57009 10.6135
1 16.2575 9.35871 9.82284
1 15.4468 8.56368 9.82121
1 17.0244 9.36379 10.6135
1 17.8181 8.57009 10.6135
1 17.831 9.36622 9.81213
1 17.0237 8.58265 9.84792
1 18.6118 9.36379 10.6135
1 19.4055 8.57009 10.6135
1 19.4326 9.36476 9.82657
1 18.6258 8.57773 9.79115
1 20.1992 9.36379 10.6135
1 20.9929 8.57009 10.6135
1 20.9938 9.36605 9.81123
1 20.211 8.56454 9.8381
1 21.7866 9.36379 10.6135
1 22.5803 8.57009 10.6135
1 22.6005 9.37102 9.84805
1 21.7936 8.57185 9.8273
1 23.374 9.36379 10.6135
1 24.1677 8.57009 10.6135
1 24.1615 9.36125 9.83035
1 23.3797 8.56194 9.84421
1 24.9614 9.36379 10.6135
1 25.7551 8.57009 10.6135
1 25.7466 9.38257 9.82964
1 24.9591 8.55636 9.81484
1 26.5488 9.36379 10.6135
1 27.3425 8.57009 10.6135
1 27.3508 9.36723 9.80911
1 26.5436 8.57378 9.82764
1 28.1362 9.36379 10.6135
1 28.9299 8.57009 10.6135
1 28.938 9.35046 9.81522
1 28.1276 8.56449 9.83121
1 29.7236 9.36379 10.6135
1 0.517315 8.57009 10.6135
1 0.511592 9.37088 9.83086
1 29.7394 8.57652 9.85116
1 1.31102 9.36379 10.6135
1 2.10472 8.57009 10.6135
1 2.10036 9.35059 9.78796
1 1.29695 8.55834 9.80869
1 2.89842 9.36379 10.6135
1 3.69212 8.57009 10.6135
1 3.66944 9.37051 9.78475
1 2.89052 8.56588 9.80672
1 4.48582 9.36379 10.6135
1 5.27952 8.57009 10.6135
1 5.26267 9.36066 9.82226
1 4.47837 8.58809 9.82215
1 6.07322 9.36379 10.6135
1 6.86692 8.57009 10.6135
1 6.79508 9.3643 9.79427
1 6.07079 8.57425 9.79242
1 7.5 7.77639 10.6135
1 8.2937 6.98268 10.6135
1 8.30719 7.77322 9.80185
1 7.55934 6.97372 9.7955
1 9.0874 7.77639 10.6135
1 9.8811 6.98268 10.6135
1 9.88104 7.80995 9.84477
1 9.10198 6.99698 9.81546
1 10.6748 7.77639 10.6135
1 11.4685 6.98268 10.6135
1 11.4431 7.78399 9.82614
1 10.6785 6.98987 9.83269
1 12.2622 7.77639 10.6135
1 13.0559 6.98268 10.6135
1 13.0374 7.78686 9.83654
1 12.2413 6.99144 9.78937
1 13.8496 7.77639 10.6135
1 14.6433 6.98268 10.6135
1 14.6146 7.7476 9.81736
1 13.8216 6.96061 9.83229
1 15.437 7.77639 10.6135
1 16.2307 6.98268 10.6135
1 16.2278 7.78054 9.79632
1 15.4369 6.97391 9.8304
1 17.0244 7.77639 10.6135
1 17.8181 6.98268 10.6135
1 17.8257 7.79884 9.79849
1 17.0375 7.00976 9.83907
1 18.6118 7.77639 10.6135
1 19.4055 6.98268 10.6135
1 19.4052 7.80075 9.82051
1 18.6032 6.99084 9.83902
1 20.1992 7.77639 10.6135
1 20.9929 6.98268 10.6135
1 20.9802 7.7577 9.82682
1 20.1915 7.00707 9.83657
1 21.7866 7.77639 10.6135
1 22.5803 6.98268 10.6135
1 22.5811 7.75982 9.83576
1 21.7952 6.98723 9.79274
1 23.374 7.77639 10.6135
1 24.1677 6.98268 10.6135
1 24.1562 7.78377 9.80894
1 23.3814 6.97011 9.81983
1 24.9614 7.77639 10.6135
1 25.7551 6.98268 10.6135
1 25.7427 7.80817 9.82662
1 24.9689 6.98337 9.83518
1 26.5488 7.77639 10.6135
1 27.3425 6.98268 10.6135
1 27.3184 7.75849 9.82341
1 26.4963 6.96881 9.80294
1 28.1362 7.77639 10.6135
1 28.9299 6.98268 10.6135
1 28.911 7.78964 9.83948
1 28.1476 6.99195 9.81512
1 29.7236 7.77639 10.6135
1 0.517315 6.98268 10.6135
1 0.473147 7.78186 9.80853
1 29.7264 6.99008 9.82305
1 1.31102 7.77639 10.6135
1 2.10472 6.98268 10.6135
1 2.0954 7.7699 9.80946
1 1.29402 7.01776 9.83709
1 2.89842 7.77639 10.6135
1 3.69212 6.98268 10.6135
1 3.68011 7.75604 9.80456
1 2.88519 7.00566 9.81031
1 4.48582 7.77639 10.6135
1 5.27952 6.98268 10.6135
1 5.26373 7.75722 9.83172
1 4.47154 6.97871 9.79589
1 6.07322 7.77639 10.6135
1 6.86692 6.98268 10.6135
1 6.80368 7.78003 9.78768
1 6.05364 6.9799 9.79295
1 7.5 6.18898 10.6135
1 8.2937 5.39528 10.6135
1 8.29453 6.19606 9.82316
1 7.55264 5.42336 9.83183
1 9.0874 6.18898 10.6135
1 9.8811 5.39528 10.6135
1 9.88634 6.17885 9.82098
1 9.09978 5.40417 9.81259
1 10.6748 6.18898 10.6135
1 11.4685 5.39528 10.6135
1 11.4395 6.20091 9.83866
1 10.6894 5.37115 9.80958
1 12.2622 6.18898 10.6135
1 13.0559 5.39528 10.6135
1 13.064 6.17697 9.84708
1 12.255 5.3928 9.81431
1 13.8496 6.18898 10.6135
1 14.6433 5.39528 10.6135
1 14.6091 6.20233 9.83511
1 13.8683 5.41078 9.83857
1 15.437 6.18898 10.6135
1 16.2307 5.39528 10.6135