9376
Atoms. Timestep: 4000000
1 30 3.55271e-15 10.6191
1 0.793701 29.2063 10.6191
1 0.838375 29.9349 9.77709
1 0.0639601 29.1976 9.76406
1 1.5874 3.55271e-15 10.6191
1 2.3811 29.2063 10.6191
1 2.39387 29.9203 9.7921
1 1.6246 29.1766 9.81856
1 3.1748 3.55271e-15 10.6191
1 3.9685 29.2063 10.6191
1 3.96208 29.9095 9.7614
1 3.14301 29.1694 9.85212
1 4.7622 3.55271e-15 10.6191
1 5.5559 29.2063 10.6191
1 5.54759 29.9384 9.79327
1 4.76028 29.2053 9.8017
1 6.3496 3.55271e-15 10.6191
1 7.1433 29.2063 10.6191
1 7.13746 29.9251 9.77512
1 6.33724 29.1872 9.80195
1 7.93701 3.55271e-15 10.6191
1 8.73071 29.2063 10.6191
1 8.71295 29.9344 9.78813
1 7.93096 29.1685 9.80942
1 9.52441 3.55271e-15 10.6191
1 10.3181 29.2063 10.6191
1 10.306 29.9444 9.77456
1 9.50596 29.164 9.83847
1 11.1118 3.55271e-15 10.6191
1 11.9055 29.2063 10.6191
1 11.9168 29.9414 9.79145
1 11.0766 29.186 9.8444
1 12.6992 3.55271e-15 10.6191
1 13.4929 29.2063 10.6191
1 13.4601 29.9274 9.78274
1 12.7005 29.1847 9.81855
1 14.2866 3.55271e-15 10.6191
1 15.0803 29.2063 10.6191
1 15.0891 29.9314 9.7966
1 14.2715 29.1828 9.81218
1 15.874 3.55271e-15 10.6191
1 16.6677 29.2063 10.6191
1 16.687 29.9222 9.79749
1 15.8703 29.1754 9.82054
1 17.4614 3.55271e-15 10.6191
1 18.2551 29.2063 10.6191
1 18.2453 29.9344 9.78669
1 17.4651 29.1587 9.79735
1 19.0488 3.55271e-15 10.6191
1 19.8425 29.2063 10.6191
1 19.8311 29.9259 9.81524
1 19.0437 29.1759 9.81873
1 20.6362 3.55271e-15 10.6191
1 21.4299 29.2063 10.6191
1 21.4275 29.9446 9.78279
1 20.6469 29.1757 9.80533
1 22.2236 3.55271e-15 10.6191
1 23.0173 29.2063 10.6191
1 23.0125 29.9227 9.81553
1 22.2248 29.1869 9.80599
1 23.811 3.55271e-15 10.6191
1 24.6047 29.2063 10.6191
1 24.5822 29.9063 9.79966
1 23.8026 29.1795 9.80489
1 25.3984 3.55271e-15 10.6191
1 26.1921 29.2063 10.6191
1 26.2018 29.9424 9.77571
1 25.3995 29.1668 9.82915
1 26.9858 3.55271e-15 10.6191
1 27.7795 29.2063 10.6191
1 27.7582 29.9095 9.78957
1 26.9846 29.1619 9.82667
1 28.5732 3.55271e-15 10.6191
1 29.3669 29.2063 10.6191
1 29.2932 29.9456 9.76724
1 28.5444 29.1791 9.81233
1 30 28.4126 10.6191
1 0.793701 27.6189 10.6191
1 0.824796 28.4036 9.82774
1 0.0824835 27.5945 9.77916
1 1.5874 28.4126 10.6191
1 2.3811 27.6189 10.6191
1 2.40562 28.3816 9.84752
1 1.60763 27.6273 9.82378
1 3.1748 28.4126 10.6191
1 3.9685 27.6189 10.6191
1 3.96949 28.3916 9.82309
1 3.20231 27.6271 9.8301
1 4.7622 28.4126 10.6191
1 5.5559 27.6189 10.6191
1 5.54898 28.3897 9.82217
1 4.77089 27.5994 9.83174
1 6.3496 28.4126 10.6191
1 7.1433 27.6189 10.6191
1 7.13297 28.3814 9.82925
1 6.35014 27.6036 9.85224
1 7.93701 28.4126 10.6191
1 8.73071 27.6189 10.6191
1 8.72248 28.4185 9.82487
1 7.92807 27.6355 9.84769
1 9.52441 28.4126 10.6191
1 10.3181 27.6189 10.6191
1 10.3287 28.3915 9.82384
1 9.53436 27.6167 9.81877
1 11.1118 28.4126 10.6191
1 11.9055 27.6189 10.6191
1 11.921 28.4021 9.82139
1 11.144 27.6209 9.8333
1 12.6992 28.4126 10.6191
1 13.4929 27.6189 10.6191
1 13.4793 28.4033 9.83239
1 12.7027 27.5811 9.85342
1 14.2866 28.4126 10.6191
1 15.0803 27.6189 10.6191
1 15.063 28.394 9.81202
1 14.2929 27.6079 9.81262
1 15.874 28.4126 10.6191
1 16.6677 27.6189 10.6191
1 16.6421 28.4087 9.82667
1 15.8944 27.6159 9.84304
1 17.4614 28.4126 10.6191
1 18.2551 27.6189 10.6191
1 18.2525 28.3832 9.81495
1 17.4771 27.6075 9.8326
1 19.0488 28.4126 10.6191
1 19.8425 27.6189 10.6191
1 19.8314 28.4033 9.82434
1 19.0476 27.6071 9.81146
1 20.6362 28.4126 10.6191
1 21.4299 27.6189 10.6191
1 21.4285 28.3885 9.81578
1 20.6261 27.5676 9.84269
1 22.2236 28.4126 10.6191
1 23.0173 27.6189 10.6191
1 22.9974 28.3534 9.82384
1 22.2205 27.5979 9.83365
1 23.811 28.4126 10.6191
1 24.6047 27.6189 10.6191
1 24.6096 28.4098 9.80287
1 23.8163 27.6146 9.83412
1 25.3984 28.4126 10.6191
1 26.1921 27.6189 10.6191
1 26.1741 28.3985 9.85626
1 25.4216 27.6092 9.82225
1 26.9858 28.4126 10.6191
1 27.7795 27.6189 10.6191
1 27.7618 28.4008 9.83825
1 26.9529 27.6326 9.8243
1 28.5732 28.4126 10.6191
1 29.3669 27.6189 10.6191
1 29.3029 28.3996 9.76946
1 28.5366 27.613 9.79599
1 30 26.8252 10.6191
1 0.793701 26.0315 10.6191
1 0.804132 26.8482 9.81921
1 0.0364888 26.0323 9.79978
1 1.5874 26.8252 10.6191
1 2.3811 26.0315 10.6191
1 2.3653 26.8486 9.81939
1 1.58813 26.0334 9.83282
1 3.1748 26.8252 10.6191
1 3.9685 26.0315 10.6191
1 3.96462 26.8236 9.8422
1 3.17026 26.0606 9.83101
1 4.7622 26.8252 10.6191
1 5.5559 26.0315 10.6191
1 5.57602 26.8197 9.82929
1 4.75218 26.0104 9.82259
1 6.3496 26.8252 10.6191
1 7.1433 26.0315 10.6191
1 7.15605 26.8521 9.81086
1 6.34937 26.0268 9.80387
1 7.93701 26.8252 10.6191
1 8.73071 26.0315 10.6191
1 8.70895 26.8402 9.84644
1 7.90307 26.0479 9.82936
1 9.52441 26.8252 10.6191
1 10.3181 26.0315 10.6191
1 10.3583 26.8237 9.8177
1 9.53156 26.0507 9.84341
1 11.1118 26.8252 10.6191
1 11.9055 26.0315 10.6191
1 11.906 26.8088 9.81448
1 11.1159 26.0044 9.83738
1 12.6992 26.8252 10.6191
1 13.4929 26.0315 10.6191
1 13.4771 26.827 9.83661
1 12.6967 26.006 9.81798
1 14.2866 26.8252 10.6191
1 15.0803 26.0315 10.6191
1 15.0794 26.8281 9.83661
1 14.292 26.0353 9.8473
1 15.874 26.8252 10.6191
1 16.6677 26.0315 10.6191
1 16.6842 26.8234 9.83233
1 15.8881 26.0144 9.80795
1 17.4614 26.8252 10.6191
1 18.2551 26.0315 10.6191
1 18.2751 26.8034 9.83666
1 17.4587 26.0208 9.82797
1 19.0488 26.8252 10.6191
1 19.8425 26.0315 10.6191
1 19.8359 26.8275 9.8308
1 19.0422 25.9868 9.83376
1 20.6362 26.8252 10.6191
1 21.4299 26.0315 10.6191
1 21.425 26.8041 9.82547
1 20.6233 26.0442 9.82936
1 22.2236 26.8252 10.6191
1 23.0173 26.0315 10.6191
1 22.9956 26.8139 9.84422
1 22.2168 26.0133 9.83468
1 23.811 26.8252 10.6191
1 24.6047 26.0315 10.6191
1 24.6101 26.8148 9.84959
1 23.815 26.0277 9.82848
1 25.3984 26.8252 10.6191
1 26.1921 26.0315 10.6191
1 26.1687 26.7983 9.84321
1 25.4063 26.0307 9.84384
1 26.9858 26.8252 10.6191
1 27.7795 26.0315 10.6191
1 27.7593 26.7963 9.82412
1 26.9609 26.0385 9.84987
1 28.5732 26.8252 10.6191
1 29.3669 26.0315 10.6191
1 29.2909 26.8081 9.79632
1 28.5285 26.0321 9.81824
1 30 25.2378 10.6191
1 0.793701 24.4441 10.6191
1 0.808358 25.2505 9.83743
1 0.0607035 24.436 9.7828
1 1.5874 25.2378 10.6191
1 2.3811 24.4441 10.6191
1 2.40582 25.2445 9.81953
1 1.6295 24.4103 9.84244
1 3.1748 25.2378 10.6191
1 3.9685 24.4441 10.6191
1 3.96135 25.2595 9.8235
1 3.18806 24.4482 9.82398
1 4.7622 25.2378 10.6191
1 5.5559 24.4441 10.6191
1 5.55773 25.2414 9.81214
1 4.77279 24.4406 9.84107
1 6.3496 25.2378 10.6191
1 7.1433 24.4441 10.6191
1 7.12753 25.2364 9.83674
1 6.37074 24.4518 9.84324
1 7.93701 25.2378 10.6191
1 8.73071 24.4441 10.6191
1 8.74958 25.259 9.8308
1 7.94718 24.4561 9.83357
1 9.52441 25.2378 10.6191
1 10.3181 24.4441 10.6191
1 10.3232 25.2496 9.8077
1 9.53495 24.436 9.84939
1 11.1118 25.2378 10.6191
1 11.9055 24.4441 10.6191
1 11.9205 25.2042 9.83302
1 11.1144 24.4334 9.82645
1 12.6992 25.2378 10.6191
1 13.4929 24.4441 10.6191
1 13.5029 25.2312 9.83339
1 12.7309 24.4316 9.83802
1 14.2866 25.2378 10.6191
1 15.0803 24.4441 10.6191
1 15.0746 25.2316 9.81647
1 14.2922 24.4151 9.81914
1 15.874 25.2378 10.6191
1 16.6677 24.4441 10.6191
1 16.6577 25.2439 9.85518
1 15.8627 24.4596 9.81251
1 17.4614 25.2378 10.6191
1 18.2551 24.4441 10.6191
1 18.2401 25.2504 9.83474
1 17.4627 24.4423 9.83462
1 19.0488 25.2378 10.6191
1 19.8425 24.4441 10.6191
1 19.8493 25.229 9.80509
1 19.044 24.4437 9.82104
1 20.6362 25.2378 10.6191
1 21.4299 24.4441 10.6191
1 21.3798 25.2348 9.81639
1 20.6191 24.4267 9.80869
1 22.2236 25.2378 10.6191
1 23.0173 24.4441 10.6191
1 23.0222 25.2186 9.80135
1 22.2201 24.4392 9.82904
1 23.811 25.2378 10.6191
1 24.6047 24.4441 10.6191
1 24.5944 25.2427 9.8088
1 23.8229 24.4227 9.81277
1 25.3984 25.2378 10.6191
1 26.1921 24.4441 10.6191
1 26.1905 25.2643 9.81741
1 25.4114 24.4595 9.81414
1 26.9858 25.2378 10.6191
1 27.7795 24.4441 10.6191
1 27.7511 25.2348 9.82139
1 26.9851 24.4632 9.81155
1 28.5732 25.2378 10.6191
1 29.3669 24.4441 10.6191
1 29.2821 25.2292 9.80106
1 28.5379 24.4277 9.82343
1 30 23.6504 10.6191
1 0.793701 22.8567 10.6191
1 0.824614 23.6494 9.84975
1 0.0798904 22.8433 9.81708
1 1.5874 23.6504 10.6191
1 2.3811 22.8567 10.6191
1 2.41584 23.6388 9.83315
1 1.60058 22.8743 9.8433
1 3.1748 23.6504 10.6191
1 3.9685 22.8567 10.6191
1 3.9597 23.65 9.80123
1 3.18578 22.8424 9.82663
1 4.7622 23.6504 10.6191
1 5.5559 22.8567 10.6191
1 5.55041 23.6743 9.83087
1 4.79293 22.864 9.79358
1 6.3496 23.6504 10.6191
1 7.1433 22.8567 10.6191
1 7.13464 23.6495 9.82248
1 6.37053 22.8555 9.84288
1 7.93701 23.6504 10.6191
1 8.73071 22.8567 10.6191
1 8.73381 23.6432 9.84066
1 7.94344 22.8587 9.81298
1 9.52441 23.6504 10.6191
1 10.3181 22.8567 10.6191
1 10.3314 23.6415 9.83397
1 9.51602 22.8676 9.82264
1 11.1118 23.6504 10.6191
1 11.9055 22.8567 10.6191
1 11.9156 23.6509 9.84324
1 11.121 22.8429 9.82439
1 12.6992 23.6504 10.6191
1 13.4929 22.8567 10.6191
1 13.5054 23.6488 9.80865
1 12.6936 22.8671 9.83578
1 14.2866 23.6504 10.6191
1 15.0803 22.8567 10.6191
1 15.0603 23.6578 9.82135
1 14.3068 22.8406 9.81967
1 15.874 23.6504 10.6191
1 16.6677 22.8567 10.6191
1 16.6758 23.6653 9.8224
1 15.8598 22.8552 9.81096
1 17.4614 23.6504 10.6191
1 18.2551 22.8567 10.6191
1 18.2474 23.6298 9.82449
1 17.4357 22.8629 9.83578
1 19.0488 23.6504 10.6191
1 19.8425 22.8567 10.6191
1 19.83 23.645 9.82051
1 19.0428 22.8468 9.80857
1 20.6362 23.6504 10.6191
1 21.4299 22.8567 10.6191
1 21.4221 23.6416 9.81124
1 20.6185 22.8395 9.83333
1 22.2236 23.6504 10.6191
1 23.0173 22.8567 10.6191
1 23.0467 23.6497 9.81998
1 22.2036 22.8503 9.80978
1 23.811 23.6504 10.6191
1 24.6047 22.8567 10.6191
1 24.5928 23.6547 9.85115
1 23.8164 22.8738 9.8158
1 25.3984 23.6504 10.6191
1 26.1921 22.8567 10.6191
1 26.1952 23.6594 9.81794
1 25.405 22.8653 9.85743
1 26.9858 23.6504 10.6191
1 27.7795 22.8567 10.6191
1 27.7729 23.6602 9.79747
1 26.9651 22.8529 9.83397
1 28.5732 23.6504 10.6191
1 29.3669 22.8567 10.6191
1 29.2872 23.6405 9.79885
1 28.5689 22.8486 9.83592
1 30 22.063 10.6191
1 0.793701 21.2693 10.6191
1 0.809594 22.0426 9.82679
1 0.059254 21.2697 9.77696
1 1.5874 22.063 10.6191
1 2.3811 21.2693 10.6191
1 2.38697 22.0649 9.8667
1 1.60586 21.2674 9.83493
1 3.1748 22.063 10.6191
1 3.9685 21.2693 10.6191
1 3.9575 22.0817 9.82896
1 3.18403 21.2725 9.80818
1 4.7622 22.063 10.6191
1 5.5559 21.2693 10.6191
1 5.56788 22.071 9.83346
1 4.77692 21.2704 9.8215
1 6.3496 22.063 10.6191
1 7.1433 21.2693 10.6191
1 7.14833 22.0554 9.82119
1 6.32666 21.2585 9.84103
1 7.93701 22.063 10.6191
1 8.73071 21.2693 10.6191
1 8.75162 22.0729 9.85123
1 7.94484 21.2677 9.81392
1 9.52441 22.063 10.6191
1 10.3181 21.2693 10.6191
1 10.3026 22.0402 9.84016
1 9.53364 21.2468 9.81665
1 11.1118 22.063 10.6191
1 11.9055 21.2693 10.6191
1 11.8995 22.0758 9.82972
1 11.118 21.2579 9.82731
1 12.6992 22.063 10.6191
1 13.4929 21.2693 10.6191
1 13.5051 22.0751 9.83172
1 12.694 21.2538 9.84795
1 14.2866 22.063 10.6191
1 15.0803 21.2693 10.6191
1 15.0958 22.0425 9.80606
1 14.2816 21.27 9.83203
1 15.874 22.063 10.6191
1 16.6677 21.2693 10.6191
1 16.6501 22.0609 9.81461
1 15.8839 21.274 9.81754
1 17.4614 22.063 10.6191
1 18.2551 21.2693 10.6191
1 18.2288 22.0607 9.84652
1 17.4606 21.2775 9.82967
1 19.0488 22.063 10.6191
1 19.8425 21.2693 10.6191
1 19.8327 22.0453 9.81746
1 19.0195 21.2377 9.83398
1 20.6362 22.063 10.6191
1 21.4299 21.2693 10.6191
1 21.4284 22.061 9.81618
1 20.6336 21.258 9.83111
1 22.2236 22.063 10.6191
1 23.0173 21.2693 10.6191
1 23.0127 22.0809 9.82228
1 22.2418 21.2449 9.81566
1 23.811 22.063 10.6191
1 24.6047 21.2693 10.6191
1 24.6062 22.0508 9.81561
1 23.8245 21.2902 9.83912
1 25.3984 22.063 10.6191
1 26.1921 21.2693 10.6191
1 26.1876 22.0472 9.83696
1 25.3852 21.2887 9.82051
1 26.9858 22.063 10.6191
1 27.7795 21.2693 10.6191
1 27.7644 22.0737 9.81727
1 26.9587 21.2491 9.83722
1 28.5732 22.063 10.6191
1 29.3669 21.2693 10.6191
1 29.3058 22.0507 9.78424
1 28.5516 21.262 9.82447
1 30 20.4756 10.6191
1 0.793701 19.6819 10.6191
1 0.816843 20.49 9.82785
1 0.0652128 19.6947 9.77677
1 1.5874 20.4756 10.6191
1 2.3811 19.6819 10.6191
1 2.3885 20.4453 9.8179
1 1.59465 19.6947 9.84141
1 3.1748 20.4756 10.6191
1 3.9685 19.6819 10.6191
1 3.9679 20.458 9.82594
1 3.18999 19.6656 9.81281
1 4.7622 20.4756 10.6191
1 5.5559 19.6819 10.6191
1 5.54983 20.4643 9.81926
1 4.78481 19.6704 9.83333
1 6.3496 20.4756 10.6191
1 7.1433 19.6819 10.6191
1 7.14617 20.4593 9.82553
1 6.35589 19.6889 9.82154
1 7.93701 20.4756 10.6191
1 8.73071 19.6819 10.6191
1 8.74388 20.4578 9.82838
1 7.94496 19.6842 9.81129
1 9.52441 20.4756 10.6191
1 10.3181 19.6819 10.6191
1 10.3219 20.4679 9.81508
1 9.51138 19.6733 9.84033
1 11.1118 20.4756 10.6191
1 11.9055 19.6819 10.6191
1 11.9133 20.4671 9.85319
1 11.1168 19.6665 9.83667
1 12.6992 20.4756 10.6191
1 13.4929 19.6819 10.6191
1 13.5008 20.4779 9.81987
1 12.6964 19.7003 9.82438
1 14.2866 20.4756 10.6191
1 15.0803 19.6819 10.6191
1 15.0813 20.4948 9.8138
1 14.2617 19.7076 9.81833
1 15.874 20.4756 10.6191
1 16.6677 19.6819 10.6191
1 16.6686 20.4717 9.79185
1 15.8724 19.6766 9.83522
1 17.4614 20.4756 10.6191
1 18.2551 19.6819 10.6191
1 18.2364 20.4541 9.83682
1 17.4675 19.6528 9.81605
1 19.0488 20.4756 10.6191
1 19.8425 19.6819 10.6191
1 19.8546 20.475 9.82712
1 19.0441 19.6886 9.80356
1 20.6362 20.4756 10.6191
1 21.4299 19.6819 10.6191
1 21.4202 20.4784 9.83354
1 20.625 19.6868 9.82186
1 22.2236 20.4756 10.6191
1 23.0173 19.6819 10.6191
1 23.0153 20.4683 9.82472
1 22.2084 19.7019 9.82869
1 23.811 20.4756 10.6191
1 24.6047 19.6819 10.6191
1 24.5853 20.478 9.83992
1 23.8202 19.6943 9.82297
1 25.3984 20.4756 10.6191
1 26.1921 19.6819 10.6191
1 26.1703 20.4767 9.84848
1 25.3846 19.6911 9.82539
1 26.9858 20.4756 10.6191
1 27.7795 19.6819 10.6191
1 27.7579 20.4797 9.82274
1 26.9485 19.6633 9.84569
1 28.5732 20.4756 10.6191
1 29.3669 19.6819 10.6191
1 29.2969 20.489 9.78416
1 28.5364 19.6916 9.82069
1 30 18.8882 10.6191
1 0.793701 18.0945 10.6191
1 0.843317 18.8812 9.80728
1 0.0538719 18.0846 9.79832
1 1.5874 18.8882 10.6191
1 2.3811 18.0945 10.6191
1 2.37001 18.8885 9.82451
1 1.59853 18.1086 9.81995
1 3.1748 18.8882 10.6191
1 3.9685 18.0945 10.6191
1 3.99294 18.8992 9.81169
1 3.20463 18.1278 9.85281
1 4.7622 18.8882 10.6191
1 5.5559 18.0945 10.6191
1 5.56322 18.8774 9.83133
1 4.78101 18.0965 9.79453
1 6.3496 18.8882 10.6191
1 7.1433 18.0945 10.6191
1 7.1469 18.9142 9.80944
1 6.36691 18.1083 9.81928
1 7.93701 18.8882 10.6191
1 8.73071 18.0945 10.6191
1 8.74751 18.8846 9.81944
1 7.94987 18.1233 9.80526
1 9.52441 18.8882 10.6191
1 10.3181 18.0945 10.6191
1 10.2937 18.9013 9.83374
1 9.52056 18.0792 9.81728
1 11.1118 18.8882 10.6191
1 11.9055 18.0945 10.6191
1 11.914 18.8736 9.84936
1 11.1302 18.1122 9.82738
1 12.6992 18.8882 10.6191
1 13.4929 18.0945 10.6191
1 13.5075 18.8787 9.83529
1 12.6955 18.0989 9.82922
1 14.2866 18.8882 10.6191
1 15.0803 18.0945 10.6191
1 15.1051 18.8943 9.77915
1 14.2831 18.0984 9.83563
1 15.874 18.8882 10.6191
1 16.6677 18.0945 10.6191
1 16.6711 18.881 9.81017
1 15.8793 18.0762 9.79548
1 17.4614 18.8882 10.6191
1 18.2551 18.0945 10.6191
1 18.2673 18.8771 9.8049
1 17.4598 18.1052 9.79517
1 19.0488 18.8882 10.6191
1 19.8425 18.0945 10.6191
1 19.8319 18.9001 9.83128
1 19.0384 18.1106 9.80998
1 20.6362 18.8882 10.6191
1 21.4299 18.0945 10.6191
1 21.432 18.8904 9.83916
1 20.631 18.0898 9.82344
1 22.2236 18.8882 10.6191
1 23.0173 18.0945 10.6191
1 22.9955 18.8681 9.82801
1 22.1925 18.0818 9.8405
1 23.811 18.8882 10.6191
1 24.6047 18.0945 10.6191
1 24.6054 18.8881 9.79759
1 23.8069 18.0856 9.82178
1 25.3984 18.8882 10.6191
1 26.1921 18.0945 10.6191
1 26.1921 18.9015 9.84164
1 25.386 18.0832 9.84239
1 26.9858 18.8882 10.6191
1 27.7795 18.0945 10.6191
1 27.7416 18.877 9.82576
1 26.9694 18.0886 9.82339
1 28.5732 18.8882 10.6191
1 29.3669 18.0945 10.6191
1 29.3165 18.8931 9.79699
1 28.5741 18.1192 9.82226
1 30 17.3008 10.6191
1 0.793701 16.5071 10.6191
1 0.806216 17.3203 9.81994
1 0.0573351 16.5049 9.79397
1 1.5874 17.3008 10.6191
1 2.3811 16.5071 10.6191
1 2.41688 17.3201 9.82818
1 1.61012 16.5271 9.8564
1 3.1748 17.3008 10.6191
1 3.9685 16.5071 10.6191
1 3.96782 17.317 9.82748
1 3.20158 16.5017 9.80792
1 4.7622 17.3008 10.6191
1 5.5559 16.5071 10.6191
1 5.567 17.3156 9.8437
1 4.76633 16.5214 9.83524
1 6.3496 17.3008 10.6191
1 7.1433 16.5071 10.6191
1 7.15803 17.3303 9.80724
1 6.38196 16.5251 9.82594
1 7.93701 17.3008 10.6191
1 8.73071 16.5071 10.6191
1 8.71999 17.3107 9.82032
1 7.9355 16.523 9.81897
1 9.52441 17.3008 10.6191
1 10.3181 16.5071 10.6191
1 10.3147 17.326 9.81755
1 9.54163 16.5263 9.83081
1 11.1118 17.3008 10.6191
1 11.9055 16.5071 10.6191
1 11.9186 17.3117 9.82299
1 11.1005 16.522 9.83634
1 12.6992 17.3008 10.6191
1 13.4929 16.5071 10.6191
1 13.4889 17.2967 9.82482
1 12.6982 16.5074 9.82383
1 14.2866 17.3008 10.6191
1 15.0803 16.5071 10.6191
1 15.0772 17.3191 9.82754
1 14.306 16.5053 9.83418
1 15.874 17.3008 10.6191
1 16.6677 16.5071 10.6191
1 16.6638 17.3092 9.82127
1 15.896 16.4982 9.79925
1 17.4614 17.3008 10.6191
1 18.2551 16.5071 10.6191
1 18.2659 17.2868 9.83002
1 17.4554 16.5116 9.81998
1 19.0488 17.3008 10.6191
1 19.8425 16.5071 10.6191
1 19.8156 17.2997 9.81256
1 19.0389 16.4908 9.81007
1 20.6362 17.3008 10.6191
1 21.4299 16.5071 10.6191
1 21.4068 17.2946 9.81519
1 20.6372 16.5193 9.8135
1 22.2236 17.3008 10.6191
1 23.0173 16.5071 10.6191
1 23.0185 17.2853 9.84549
1 22.2261 16.523 9.83811
1 23.811 17.3008 10.6191
1 24.6047 16.5071 10.6191
1 24.5838 17.2994 9.8454
1 23.8276 16.5002 9.83291
1 25.3984 17.3008 10.6191
1 26.1921 16.5071 10.6191
1 26.2105 17.2734 9.83455
1 25.3891 16.5153 9.81014
1 26.9858 17.3008 10.6191
1 27.7795 16.5071 10.6191
1 27.7823 17.3088 9.83657
1 27.0204 16.4867 9.82958
1 28.5732 17.3008 10.6191
1 29.3669 16.5071 10.6191
1 29.309 17.2953 9.79134
1 28.5504 16.5085 9.82498
1 30 15.7134 10.6191
1 0.793701 14.9197 10.6191
1 0.805085 15.7415 9.82508
1 0.0674283 14.9241 9.79432
1 1.5874 15.7134 10.6191
1 2.3811 14.9197 10.6191
1 2.3947 15.7315 9.84179
1 1.61779 14.9361 9.81101
1 3.1748 15.7134 10.6191
1 3.9685 14.9197 10.6191
1 3.98893 15.7225 9.81775
1 3.20117 14.9351 9.82908
1 4.7622 15.7134 10.6191
1 5.5559 14.9197 10.6191
1 5.56929 15.7185 9.80933
1 4.75006 14.9109 9.84774
1 6.3496 15.7134 10.6191
1 7.1433 14.9197 10.6191
1 7.12735 15.7203 9.81616
1 6.34465 14.923 9.79913
1 7.93701 15.7134 10.6191
1 8.73071 14.9197 10.6191
1 8.71249 15.7057 9.81684
1 7.92636 14.9019 9.83117
1 9.52441 15.7134 10.6191
1 10.3181 14.9197 10.6191
1 10.3071 15.7342 9.8029
1 9.51641 14.9085 9.81878
1 11.1118 15.7134 10.6191
1 11.9055 14.9197 10.6191
1 11.8872 15.719 9.83417
1 11.1177 14.9112 9.81579
1 12.6992 15.7134 10.6191
1 13.4929 14.9197 10.6191
1 13.4835 15.6886 9.81454
1 12.7003 14.9036 9.83845
1 14.2866 15.7134 10.6191
1 15.0803 14.9197 10.6191
1 15.084 15.6902 9.8243
1 14.279 14.8875 9.82691
1 15.874 15.7134 10.6191
1 16.6677 14.9197 10.6191
1 16.6761 15.7268 9.83471
1 15.8828 14.9445 9.84212
1 17.4614 15.7134 10.6191
1 18.2551 14.9197 10.6191
1 18.2642 15.7176 9.81732
1 17.4616 14.9319 9.82731
1 19.0488 15.7134 10.6191
1 19.8425 14.9197 10.6191
1 19.8444 15.7272 9.82638
1 19.0519 14.9057 9.84649
1 20.6362 15.7134 10.6191
1 21.4299 14.9197 10.6191
1 21.4373 15.7206 9.8271
1 20.617 14.9356 9.83425
1 22.2236 15.7134 10.6191
1 23.0173 14.9197 10.6191
1 23.0122 15.7118 9.84101
1 22.209 14.9044 9.8346
1 23.811 15.7134 10.6191
1 24.6047 14.9197 10.6191
1 24.596 15.6975 9.82735
1 23.8172 14.9009 9.84669
1 25.3984 15.7134 10.6191
1 26.1921 14.9197 10.6191
1 26.1828 15.7078 9.84031
1 25.3924 14.9215 9.8223
1 26.9858 15.7134 10.6191
1 27.7795 14.9197 10.6191
1 27.7607 15.677 9.80529
1 26.9755 14.8992 9.81181
1 28.5732 15.7134 10.6191
1 29.3669 14.9197 10.6191
1 29.2979 15.6951 9.77859
1 28.5525 14.9038 9.79258
1 30 14.126 10.6191
1 0.793701 13.3323 10.6191
1 0.830265 14.1268 9.80547
1 0.07551 13.3408 9.79764
1 1.5874 14.126 10.6191
1 2.3811 13.3323 10.6191
1 2.4092 14.1296 9.81472
1 1.61213 13.3619 9.82589
1 3.1748 14.126 10.6191
1 3.9685 13.3323 10.6191
1 3.95829 14.1337 9.79933
1 3.18728 13.3388 9.82384
1 4.7622 14.126 10.6191
1 5.5559 13.3323 10.6191
1 5.56742 14.1142 9.8207
1 4.76768 13.3624 9.82152
1 6.3496 14.126 10.6191
1 7.1433 13.3323 10.6191
1 7.13715 14.1202 9.81679
1 6.3564 13.3399 9.81992
1 7.93701 14.126 10.6191
1 8.73071 13.3323 10.6191
1 8.71437 14.1212 9.84062
1 7.93242 13.3386 9.80037
1 9.52441 14.126 10.6191
1 10.3181 13.3323 10.6191
1 10.3106 14.1162 9.81357
1 9.53654 13.3339 9.86367
1 11.1118 14.126 10.6191
1 11.9055 13.3323 10.6191
1 11.9198 14.1298 9.81255
1 11.1316 13.3342 9.81967
1 12.6992 14.126 10.6191
1 13.4929 13.3323 10.6191
1 13.4658 14.1355 9.80139
1 12.7057 13.3258 9.82107
1 14.2866 14.126 10.6191
1 15.0803 13.3323 10.6191
1 15.1053 14.1256 9.8277
1 14.2979 13.3435 9.83646
1 15.874 14.126 10.6191
1 16.6677 13.3323 10.6191
1 16.6662 14.1222 9.82631
1 15.8841 13.3479 9.82058
1 17.4614 14.126 10.6191
1 18.2551 13.3323 10.6191
1 18.2414 14.1323 9.80723
1 17.4395 13.3379 9.84442
1 19.0488 14.126 10.6191
1 19.8425 13.3323 10.6191
1 19.8201 14.1133 9.82897
1 19.0508 13.3273 9.8068
1 20.6362 14.126 10.6191
1 21.4299 13.3323 10.6191
1 21.427 14.1378 9.81156
1 20.6419 13.3086 9.82054
1 22.2236 14.126 10.6191
1 23.0173 13.3323 10.6191
1 23.0082 14.1385 9.86449
1 22.2178 13.3507 9.81159
1 23.811 14.126 10.6191
1 24.6047 13.3323 10.6191
1 24.6286 14.113 9.82749
1 23.8118 13.3479 9.81555
1 25.3984 14.126 10.6191
1 26.1921 13.3323 10.6191
1 26.2083 14.136 9.8383
1 25.3875 13.3275 9.83697
1 26.9858 14.126 10.6191
1 27.7795 13.3323 10.6191
1 27.7709 14.1053 9.80578
1 26.9699 13.3211 9.81012
1 28.5732 14.126 10.6191
1 29.3669 13.3323 10.6191
1 29.3006 14.1247 9.8004
1 28.5346 13.3075 9.79539
1 30 12.5386 10.6191
1 0.793701 11.7449 10.6191
1 0.846114 12.5341 9.82047
1 0.0733507 11.773 9.78543
1 1.5874 12.5386 10.6191
1 2.3811 11.7449 10.6191
1 2.40559 12.5297 9.81148
1 1.59743 11.7477 9.82132
1 3.1748 12.5386 10.6191
1 3.9685 11.7449 10.6191
1 3.99647 12.5443 9.82941
1 3.20919 11.7351 9.82217
1 4.7622 12.5386 10.6191
1 5.5559 11.7449 10.6191
1 5.54194 12.5325 9.82987
1 4.76585 11.7291 9.84596
1 6.3496 12.5386 10.6191
1 7.1433 11.7449 10.6191
1 7.15004 12.5203 9.82133
1 6.35665 11.7352 9.82806
1 7.93701 12.5386 10.6191
1 8.73071 11.7449 10.6191
1 8.76028 12.5393 9.82016
1 7.95287 11.7374 9.81779
1 9.52441 12.5386 10.6191
1 10.3181 11.7449 10.6191
1 10.3242 12.5338 9.81134
1 9.52886 11.7416 9.83477
1 11.1118 12.5386 10.6191
1 11.9055 11.7449 10.6191
1 11.9063 12.533 9.8475
1 11.111 11.7501 9.83817
1 12.6992 12.5386 10.6191
1 13.4929 11.7449 10.6191
1 13.5047 12.5373 9.81219
1 12.7083 11.7543 9.83689
1 14.2866 12.5386 10.6191
1 15.0803 11.7449 10.6191
1 15.0847 12.5404 9.82956
1 14.2989 11.7189 9.81802
1 15.874 12.5386 10.6191
1 16.6677 11.7449 10.6191
1 16.6655 12.5424 9.82766
1 15.8761 11.7283 9.82912
1 17.4614 12.5386 10.6191
1 18.2551 11.7449 10.6191
1 18.2671 12.5327 9.81078
1 17.465 11.7315 9.83251
1 19.0488 12.5386 10.6191
1 19.8425 11.7449 10.6191
1 19.8522 12.527 9.81746
1 19.0449 11.7442 9.82661
1 20.6362 12.5386 10.6191
1 21.4299 11.7449 10.6191
1 21.4346 12.5142 9.82805
1 20.6397 11.7387 9.80602
1 22.2236 12.5386 10.6191
1 23.0173 11.7449 10.6191
1 22.9996 12.5456 9.8247
1 22.2608 11.751 9.82296
1 23.811 12.5386 10.6191
1 24.6047 11.7449 10.6191
1 24.5722 12.5392 9.83236
1 23.8115 11.7518 9.81957
1 25.3984 12.5386 10.6191
1 26.1921 11.7449 10.6191
1 26.1765 12.5351 9.82862
1 25.391 11.76 9.84023
1 26.9858 12.5386 10.6191
1 27.7795 11.7449 10.6191
1 27.7631 12.5391 9.81067
1 26.9741 11.7497 9.82613
1 28.5732 12.5386 10.6191
1 29.3669 11.7449 10.6191
1 29.2977 12.5413 9.77222
1 28.5367 11.7757 9.81266
1 30 10.9512 10.6191
1 0.793701 10.1575 10.6191
1 0.805655 10.9258 9.82997
1 0.0444704 10.1361 9.78721
1 1.5874 10.9512 10.6191
1 2.3811 10.1575 10.6191
1 2.37052 10.9512 9.82997
1 1.59557 10.163 9.82484
1 3.1748 10.9512 10.6191
1 3.9685 10.1575 10.6191
1 3.99664 10.8968 9.83256
1 3.16544 10.1342 9.81729
1 4.7622 10.9512 10.6191
1 5.5559 10.1575 10.6191
1 5.57026 10.9322 9.82187
1 4.77992 10.1485 9.83297
1 6.3496 10.9512 10.6191
1 7.1433 10.1575 10.6191
1 7.14769 10.9332 9.83137
1 6.33784 10.1653 9.83594
1 7.93701 10.9512 10.6191
1 8.73071 10.1575 10.6191
1 8.72787 10.9408 9.82293
1 7.93424 10.1397 9.80681
1 9.52441 10.9512 10.6191
1 10.3181 10.1575 10.6191
1 10.32 10.9455 9.84221
1 9.5219 10.1497 9.82829
1 11.1118 10.9512 10.6191
1 11.9055 10.1575 10.6191
1 11.9149 10.9562 9.82328
1 11.1185 10.1764 9.8082
1 12.6992 10.9512 10.6191
1 13.4929 10.1575 10.6191
1 13.4833 10.941 9.80246
1 12.6794 10.1421 9.81892
1 14.2866 10.9512 10.6191
1 15.0803 10.1575 10.6191
1 15.0729 10.939 9.81911
1 14.2743 10.1561 9.82157
1 15.874 10.9512 10.6191
1 16.6677 10.1575 10.6191
1 16.6937 10.9606 9.82467
1 15.8852 10.1495 9.83339
1 17.4614 10.9512 10.6191
1 18.2551 10.1575 10.6191
1 18.246 10.9483 9.82631
1 17.489 10.1409 9.78996
1 19.0488 10.9512 10.6191
1 19.8425 10.1575 10.6191
1 19.815 10.947 9.84821
1 19.0152 10.1579 9.82317
1 20.6362 10.9512 10.6191
1 21.4299 10.1575 10.6191
1 21.454 10.9577 9.84809
1 20.6441 10.1745 9.81733
1 22.2236 10.9512 10.6191
1 23.0173 10.1575 10.6191
1 23.0433 10.9717 9.83214
1 22.2437 10.1735 9.8424
1 23.811 10.9512 10.6191
1 24.6047 10.1575 10.6191
1 24.6082 10.9459 9.82791
1 23.8 10.1757 9.825
1 25.3984 10.9512 10.6191
1 26.1921 10.1575 10.6191
1 26.1998 10.9669 9.85937
1 25.403 10.1733 9.83522
1 26.9858 10.9512 10.6191
1 27.7795 10.1575 10.6191
1 27.7681 10.9651 9.84217
1 26.9747 10.17 9.80831
1 28.5732 10.9512 10.6191
1 29.3669 10.1575 10.6191
1 29.32 10.9569 9.7916
1 28.5589 10.1536 9.81961
1 30 9.36379 10.6191
1 0.793701 8.57009 10.6191
1 0.829083 9.37144 9.82398
1 0.0834827 8.57619 9.80478
1 1.5874 9.36379 10.6191
1 2.3811 8.57009 10.6191
1 2.38576 9.34732 9.8014
1 1.59015 8.56002 9.80999
1 3.1748 9.36379 10.6191
1 3.9685 8.57009 10.6191
1 3.96203 9.36612 9.79654
1 3.17229 8.56119 9.8074
1 4.7622 9.36379 10.6191
1 5.5559 8.57009 10.6191
1 5.55504 9.36413 9.83605
1 4.75916 8.55744 9.83344
1 6.3496 9.36379 10.6191
1 7.1433 8.57009 10.6191
1 7.12083 9.36826 9.81345
1 6.36437 8.57449 9.82148
1 7.93701 9.36379 10.6191
1 8.73071 8.57009 10.6191
1 8.72764 9.35504 9.84293
1 7.92576 8.58945 9.83608
1 9.52441 9.36379 10.6191
1 10.3181 8.57009 10.6191
1 10.3162 9.34426 9.84055
1 9.49936 8.55169 9.8192
1 11.1118 9.36379 10.6191
1 11.9055 8.57009 10.6191
1 11.9028 9.36984 9.82614
1 11.1006 8.57856 9.81667
1 12.6992 9.36379 10.6191
1 13.4929 8.57009 10.6191
1 13.4862 9.36738 9.8273
1 12.673 8.58788 9.84431
1 14.2866 9.36379 10.6191
1 15.0803 8.57009 10.6191
1 15.0744 9.33165 9.82488
1 14.2771 8.59864 9.84245
1 15.874 9.36379 10.6191
1 16.6677 8.57009 10.6191
1 16.697 9.35338 9.82543
1 15.8727 8.58374 9.83362
1 17.4614 9.36379 10.6191
1 18.2551 8.57009 10.6191
1 18.2692 9.36226 9.81585
1 17.4563 8.56975 9.83816
1 19.0488 9.36379 10.6191
1 19.8425 8.57009 10.6191
1 19.8557 9.36974 9.84081
1 19.0454 8.56975 9.79936
1 20.6362 9.36379 10.6191
1 21.4299 8.57009 10.6191
1 21.432 9.36806 9.81458
1 20.639 8.58093 9.8401
1 22.2236 9.36379 10.6191
1 23.0173 8.57009 10.6191
1 23.0355 9.36563 9.86287
1 22.2263 8.56081 9.84806
1 23.811 9.36379 10.6191
1 24.6047 8.57009 10.6191
1 24.6009 9.36864 9.83304
1 23.8202 8.56866 9.84933
1 25.3984 9.36379 10.6191
1 26.1921 8.57009 10.6191
1 26.1821 9.39521 9.82858
1 25.383 8.56724 9.8259
1 26.9858 9.36379 10.6191
1 27.7795 8.57009 10.6191
1 27.7568 9.37458 9.81361
1 26.9674 8.56074 9.83983
1 28.5732 9.36379 10.6191
1 29.3669 8.57009 10.6191
1 29.3163 9.34412 9.7897
1 28.5249 8.59138 9.83653
1 30 7.77639 10.6191
1 0.793701 6.98268 10.6191
1 0.812384 7.77551 9.80988
1 0.0820033 6.98113 9.7775
1 1.5874 7.77639 10.6191
1 2.3811 6.98268 10.6191
1 2.41658 7.77011 9.82674
1 1.59792 7.02142 9.83434
1 3.1748 7.77639 10.6191
1 3.9685 6.98268 10.6191
1 3.96917 7.75934 9.82431
1 3.17637 7.00426 9.81446
1 4.7622 7.77639 10.6191
1 5.5559 6.98268 10.6191
1 5.57627 7.75947 9.83457
1 4.77289 6.98562 9.80171
1 6.3496 7.77639 10.6191
1 7.1433 6.98268 10.6191
1 7.1655 7.76755 9.82678
1 6.3386 6.98368 9.81735
1 7.93701 7.77639 10.6191
1 8.73071 6.98268 10.6191
1 8.73227 7.76502 9.80651
1 7.94052 6.96422 9.83735
1 9.52441 7.77639 10.6191
1 10.3181 6.98268 10.6191
1 10.3333 7.80702 9.84286
1 9.53078 6.9885 9.8382
1 11.1118 7.77639 10.6191
1 11.9055 6.98268 10.6191
1 11.9016 7.77903 9.84385
1 11.1072 6.98209 9.83848
1 12.6992 7.77639 10.6191
1 13.4929 6.98268 10.6191
1 13.4877 7.78935 9.82837
1 12.6732 6.98442 9.79677
1 14.2866 7.77639 10.6191
1 15.0803 6.98268 10.6191
1 15.0743 7.75831 9.8283
1 14.2629 6.9528 9.82765
1 15.874 7.77639 10.6191
1 16.6677 6.98268 10.6191
1 16.6912 7.77615 9.81259
1 15.8634 6.97711 9.82849
1 17.4614 7.77639 10.6191
1 18.2551 6.98268 10.6191
1 18.2561 7.78845 9.79641
1 17.4887 7.00832 9.82589
1 19.0488 7.77639 10.6191
1 19.8425 6.98268 10.6191
1 19.8599 7.80811 9.81611
1 19.0479 6.99582 9.83267
1 20.6362 7.77639 10.6191
1 21.4299 6.98268 10.6191
1 21.415 7.75982 9.85353
1 20.6252 6.99472 9.84433
1 22.2236 7.77639 10.6191
1 23.0173 6.98268 10.6191
1 23.0321 7.76064 9.86004
1 22.2427 6.99191 9.81189
1 23.811 7.77639 10.6191
1 24.6047 6.98268 10.6191
1 24.6018 7.7851 9.81737
1 23.845 6.96513 9.84527
1 25.3984 7.77639 10.6191
1 26.1921 6.98268 10.6191
1 26.192 7.81046 9.83908
1 25.413 6.98218 9.8447
1 26.9858 7.77639 10.6191
1 27.7795 6.98268 10.6191
1 27.7565 7.75506 9.82382
1 26.9333 6.96267 9.81318
1 28.5732 7.77639 10.6191
1 29.3669 6.98268 10.6191
1 29.3085 7.78487 9.8004
1 28.5635 6.9856 9.81864
1 30 6.18898 10.6191
1 0.793701 5.39528 10.6191
1 0.836727 6.20446 9.83172
1 0.0808214 5.41362 9.79038
1 1.5874 6.18898 10.6191
1 2.3811 5.39528 10.6191
1 2.38321 6.16944 9.81462
1 1.57993 5.39404 9.84095
1 3.1748 6.18898 10.6191
1 3.9685 5.39528 10.6191
1 3.99378 6.19642 9.84182
1 3.18446 5.40769 9.83474
1 4.7622 6.18898 10.6191
1 5.5559 5.39528 10.6191
1 5.56415 6.17217 9.82156
1 4.747 5.39764 9.83373
1 6.3496 6.18898 10.6191
1 7.1433 5.39528 10.6191
1 7.14973 6.18812 9.80016
1 6.35928 5.38891 9.81206
1 7.93701 6.18898 10.6191
1 8.73071 5.39528 10.6191
1 8.70493 6.19023 9.8468
1 7.91573 5.41859 9.84872
1 9.52441 6.18898 10.6191