9376
Atoms. Timestep: 4000000
1 30 3.55271e-15 10.6617
1 0.793701 29.2063 10.6617
1 0.811608 29.9515 9.82492
1 0.0637143 29.2081 9.82859
1 1.5874 3.55271e-15 10.6617
1 2.3811 29.2063 10.6617
1 2.41747 29.9294 9.85726
1 1.5931 29.2237 9.87865
1 3.1748 3.55271e-15 10.6617
1 3.9685 29.2063 10.6617
1 3.97665 29.9092 9.81096
1 3.18988 29.1554 9.86836
1 4.7622 3.55271e-15 10.6617
1 5.5559 29.2063 10.6617
1 5.53228 29.944 9.83232
1 4.77221 29.1829 9.87026
1 6.3496 3.55271e-15 10.6617
1 7.1433 29.2063 10.6617
1 7.14615 29.947 9.86022
1 6.36492 29.187 9.88416
1 7.93701 3.55271e-15 10.6617
1 8.73071 29.2063 10.6617
1 8.71204 29.9319 9.82866
1 7.91489 29.1539 9.87425
1 9.52441 3.55271e-15 10.6617
1 10.3181 29.2063 10.6617
1 10.3418 29.9039 9.82542
1 9.51927 29.1745 9.86912
1 11.1118 3.55271e-15 10.6617
1 11.9055 29.2063 10.6617
1 11.9139 29.9495 9.82883
1 11.1236 29.1949 9.85651
1 12.6992 3.55271e-15 10.6617
1 13.4929 29.2063 10.6617
1 13.4816 29.9086 9.82819
1 12.7004 29.2012 9.85039
1 14.2866 3.55271e-15 10.6617
1 15.0803 29.2063 10.6617
1 15.0976 29.9189 9.84142
1 14.2839 29.1864 9.85279
1 15.874 3.55271e-15 10.6617
1 16.6677 29.2063 10.6617
1 16.6973 29.9014 9.81647
1 15.8596 29.1541 9.87347
1 17.4614 3.55271e-15 10.6617
1 18.2551 29.2063 10.6617
1 18.2454 29.9184 9.83576
1 17.4793 29.1467 9.86491
1 19.0488 3.55271e-15 10.6617
1 19.8425 29.2063 10.6617
1 19.8607 29.9492 9.85242
1 19.0439 29.1617 9.87045
1 20.6362 3.55271e-15 10.6617
1 21.4299 29.2063 10.6617
1 21.4313 29.946 9.83834
1 20.647 29.1699 9.86434
1 22.2236 3.55271e-15 10.6617
1 23.0173 29.2063 10.6617
1 23.0186 29.8966 9.86435
1 22.2082 29.158 9.85346
1 23.811 3.55271e-15 10.6617
1 24.6047 29.2063 10.6617
1 24.6188 29.9299 9.8411
1 23.8325 29.1716 9.85227
1 25.3984 3.55271e-15 10.6617
1 26.1921 29.2063 10.6617
1 26.1605 29.9452 9.84715
1 25.3893 29.1769 9.84537
1 26.9858 3.55271e-15 10.6617
1 27.7795 29.2063 10.6617
1 27.7622 29.9061 9.80848
1 26.9339 29.167 9.87989
1 28.5732 3.55271e-15 10.6617
1 29.3669 29.2063 10.6617
1 29.3015 29.9517 9.79346
1 28.547 29.1718 9.84265
1 30 28.4126 10.6617
1 0.793701 27.6189 10.6617
1 0.828994 28.4179 9.86068
1 0.0864147 27.5998 9.81674
1 1.5874 28.4126 10.6617
1 2.3811 27.6189 10.6617
1 2.40535 28.3926 9.87113
1 1.59294 27.6141 9.87323
1 3.1748 28.4126 10.6617
1 3.9685 27.6189 10.6617
1 3.96678 28.3755 9.85705
1 3.18757 27.6129 9.8777
1 4.7622 28.4126 10.6617
1 5.5559 27.6189 10.6617
1 5.55866 28.3938 9.88432
1 4.74173 27.5807 9.86167
1 6.3496 28.4126 10.6617
1 7.1433 27.6189 10.6617
1 7.11449 28.3867 9.86612
1 6.34728 27.6123 9.84402
1 7.93701 28.4126 10.6617
1 8.73071 27.6189 10.6617
1 8.70352 28.3992 9.87691
1 7.93427 27.602 9.87325
1 9.52441 28.4126 10.6617
1 10.3181 27.6189 10.6617
1 10.3353 28.4116 9.84153
1 9.53363 27.5901 9.8533
1 11.1118 28.4126 10.6617
1 11.9055 27.6189 10.6617
1 11.9121 28.3781 9.86592
1 11.1049 27.6021 9.8649
1 12.6992 28.4126 10.6617
1 13.4929 27.6189 10.6617
1 13.4899 28.417 9.83973
1 12.6974 27.5726 9.87767
1 14.2866 28.4126 10.6617
1 15.0803 27.6189 10.6617
1 15.0675 28.3815 9.88678
1 14.2953 27.6011 9.83841
1 15.874 28.4126 10.6617
1 16.6677 27.6189 10.6617
1 16.6619 28.397 9.88097
1 15.8599 27.614 9.86934
1 17.4614 28.4126 10.6617
1 18.2551 27.6189 10.6617
1 18.2512 28.3896 9.8684
1 17.4532 27.5917 9.86464
1 19.0488 28.4126 10.6617
1 19.8425 27.6189 10.6617
1 19.8349 28.4002 9.84606
1 19.0605 27.5946 9.84711
1 20.6362 28.4126 10.6617
1 21.4299 27.6189 10.6617
1 21.4255 28.3757 9.86536
1 20.633 27.5825 9.85565
1 22.2236 28.4126 10.6617
1 23.0173 27.6189 10.6617
1 23.0353 28.3973 9.87044
1 22.2258 27.6121 9.84436
1 23.811 28.4126 10.6617
1 24.6047 27.6189 10.6617
1 24.6271 28.3978 9.88624
1 23.8041 27.591 9.8844
1 25.3984 28.4126 10.6617
1 26.1921 27.6189 10.6617
1 26.1787 28.3951 9.87839
1 25.3994 27.6061 9.86389
1 26.9858 28.4126 10.6617
1 27.7795 27.6189 10.6617
1 27.7625 28.403 9.85958
1 26.9825 27.6261 9.86362
1 28.5732 28.4126 10.6617
1 29.3669 27.6189 10.6617
1 29.3022 28.4107 9.82415
1 28.5315 27.6334 9.86697
1 30 26.8252 10.6617
1 0.793701 26.0315 10.6617
1 0.831481 26.8319 9.87264
1 0.0495633 26.0399 9.80401
1 1.5874 26.8252 10.6617
1 2.3811 26.0315 10.6617
1 2.37164 26.8413 9.8616
1 1.61153 26.0361 9.85899
1 3.1748 26.8252 10.6617
1 3.9685 26.0315 10.6617
1 3.96464 26.8112 9.84695
1 3.15705 26.0585 9.85441
1 4.7622 26.8252 10.6617
1 5.5559 26.0315 10.6617
1 5.56203 26.8188 9.85715
1 4.75376 26.0245 9.85589
1 6.3496 26.8252 10.6617
1 7.1433 26.0315 10.6617
1 7.13127 26.8161 9.87455
1 6.36594 26.037 9.89122
1 7.93701 26.8252 10.6617
1 8.73071 26.0315 10.6617
1 8.74047 26.8289 9.88537
1 7.91315 26.0431 9.87814
1 9.52441 26.8252 10.6617
1 10.3181 26.0315 10.6617
1 10.3078 26.8162 9.87664
1 9.50062 26.0249 9.86457
1 11.1118 26.8252 10.6617
1 11.9055 26.0315 10.6617
1 11.8977 26.8039 9.87563
1 11.1168 26.0263 9.86167
1 12.6992 26.8252 10.6617
1 13.4929 26.0315 10.6617
1 13.5026 26.8116 9.88633
1 12.6889 26.0011 9.86398
1 14.2866 26.8252 10.6617
1 15.0803 26.0315 10.6617
1 15.0786 26.8246 9.83792
1 14.2807 26.0367 9.85906
1 15.874 26.8252 10.6617
1 16.6677 26.0315 10.6617
1 16.6763 26.804 9.87103
1 15.8707 26.0303 9.86679
1 17.4614 26.8252 10.6617
1 18.2551 26.0315 10.6617
1 18.2787 26.8216 9.86989
1 17.4692 25.9929 9.86318
1 19.0488 26.8252 10.6617
1 19.8425 26.0315 10.6617
1 19.8234 26.7969 9.86293
1 19.056 25.9893 9.87588
1 20.6362 26.8252 10.6617
1 21.4299 26.0315 10.6617
1 21.4385 26.8174 9.85253
1 20.6407 26.0207 9.87427
1 22.2236 26.8252 10.6617
1 23.0173 26.0315 10.6617
1 23.0205 26.8137 9.86458
1 22.2114 26.0254 9.86182
1 23.811 26.8252 10.6617
1 24.6047 26.0315 10.6617
1 24.6203 26.8303 9.8507
1 23.8182 26.0478 9.82209
1 25.3984 26.8252 10.6617
1 26.1921 26.0315 10.6617
1 26.2055 26.7978 9.87123
1 25.3789 26.0437 9.88013
1 26.9858 26.8252 10.6617
1 27.7795 26.0315 10.6617
1 27.7834 26.7998 9.8657
1 26.9824 26.0159 9.87624
1 28.5732 26.8252 10.6617
1 29.3669 26.0315 10.6617
1 29.2985 26.8279 9.83369
1 28.5512 26.0316 9.86323
1 30 25.2378 10.6617
1 0.793701 24.4441 10.6617
1 0.803238 25.2546 9.874
1 0.0944003 24.4167 9.85664
1 1.5874 25.2378 10.6617
1 2.3811 24.4441 10.6617
1 2.36913 25.2275 9.85603
1 1.60516 24.4352 9.84249
1 3.1748 25.2378 10.6617
1 3.9685 24.4441 10.6617
1 3.94977 25.2651 9.88854
1 3.17364 24.4566 9.8649
1 4.7622 25.2378 10.6617
1 5.5559 24.4441 10.6617
1 5.56655 25.2362 9.86746
1 4.75565 24.4376 9.86364
1 6.3496 25.2378 10.6617
1 7.1433 24.4441 10.6617
1 7.14294 25.2412 9.85899
1 6.35457 24.4522 9.86383
1 7.93701 25.2378 10.6617
1 8.73071 24.4441 10.6617
1 8.69664 25.246 9.88632
1 7.93138 24.4577 9.84935
1 9.52441 25.2378 10.6617
1 10.3181 24.4441 10.6617
1 10.3198 25.2321 9.86685
1 9.49428 24.436 9.88378
1 11.1118 25.2378 10.6617
1 11.9055 24.4441 10.6617
1 11.8968 25.2415 9.87619
1 11.1115 24.439 9.86513
1 12.6992 25.2378 10.6617
1 13.4929 24.4441 10.6617
1 13.5038 25.2367 9.86364
1 12.694 24.4405 9.84628
1 14.2866 25.2378 10.6617
1 15.0803 24.4441 10.6617
1 15.0635 25.2365 9.87279
1 14.291 24.4406 9.84531
1 15.874 25.2378 10.6617
1 16.6677 24.4441 10.6617
1 16.6682 25.2268 9.85709
1 15.8628 24.4493 9.8861
1 17.4614 25.2378 10.6617
1 18.2551 24.4441 10.6617
1 18.2384 25.2075 9.85993
1 17.4642 24.4246 9.86477
1 19.0488 25.2378 10.6617
1 19.8425 24.4441 10.6617
1 19.8437 25.2299 9.83749
1 19.0597 24.431 9.84467
1 20.6362 25.2378 10.6617
1 21.4299 24.4441 10.6617
1 21.423 25.2335 9.87536
1 20.6384 24.4267 9.87156
1 22.2236 25.2378 10.6617
1 23.0173 24.4441 10.6617
1 23.0292 25.2311 9.8754
1 22.2143 24.4439 9.85817
1 23.811 25.2378 10.6617
1 24.6047 24.4441 10.6617
1 24.6089 25.2349 9.8703
1 23.8166 24.4081 9.88542
1 25.3984 25.2378 10.6617
1 26.1921 24.4441 10.6617
1 26.1927 25.2651 9.89707
1 25.3993 24.4402 9.85693
1 26.9858 25.2378 10.6617
1 27.7795 24.4441 10.6617
1 27.7807 25.2149 9.85743
1 26.948 24.4618 9.89386
1 28.5732 25.2378 10.6617
1 29.3669 24.4441 10.6617
1 29.3043 25.213 9.81645
1 28.5473 24.4247 9.85745
1 30 23.6504 10.6617
1 0.793701 22.8567 10.6617
1 0.846368 23.6483 9.85513
1 0.0726448 22.8371 9.8255
1 1.5874 23.6504 10.6617
1 2.3811 22.8567 10.6617
1 2.38694 23.6473 9.88108
1 1.61159 22.8672 9.873
1 3.1748 23.6504 10.6617
1 3.9685 22.8567 10.6617
1 3.96595 23.6656 9.84299
1 3.17967 22.8695 9.89762
1 4.7622 23.6504 10.6617
1 5.5559 22.8567 10.6617
1 5.56433 23.6636 9.85268
1 4.77313 22.8478 9.86108
1 6.3496 23.6504 10.6617
1 7.1433 22.8567 10.6617
1 7.17573 23.6507 9.84083
1 6.35673 22.8488 9.87734
1 7.93701 23.6504 10.6617
1 8.73071 22.8567 10.6617
1 8.69608 23.6364 9.85963
1 7.95601 22.8465 9.86149
1 9.52441 23.6504 10.6617
1 10.3181 22.8567 10.6617
1 10.3057 23.6674 9.8545
1 9.52943 22.844 9.88648
1 11.1118 23.6504 10.6617
1 11.9055 22.8567 10.6617
1 11.9088 23.6533 9.86933
1 11.0946 22.8894 9.88762
1 12.6992 23.6504 10.6617
1 13.4929 22.8567 10.6617
1 13.5081 23.6517 9.87372
1 12.7245 22.8639 9.86007
1 14.2866 23.6504 10.6617
1 15.0803 22.8567 10.6617
1 15.0752 23.6648 9.87663
1 14.3157 22.8567 9.87248
1 15.874 23.6504 10.6617
1 16.6677 22.8567 10.6617
1 16.6643 23.6538 9.86851
1 15.8654 22.8602 9.8806
1 17.4614 23.6504 10.6617
1 18.2551 22.8567 10.6617
1 18.2951 23.6361 9.87978
1 17.4666 22.8573 9.88831
1 19.0488 23.6504 10.6617
1 19.8425 22.8567 10.6617
1 19.8462 23.6397 9.86422
1 19.0536 22.8474 9.8629
1 20.6362 23.6504 10.6617
1 21.4299 22.8567 10.6617
1 21.435 23.6227 9.87905
1 20.6315 22.8467 9.87554
1 22.2236 23.6504 10.6617
1 23.0173 22.8567 10.6617
1 23.0126 23.6672 9.86151
1 22.2159 22.853 9.86955
1 23.811 23.6504 10.6617
1 24.6047 22.8567 10.6617
1 24.6149 23.6222 9.86656
1 23.814 22.8265 9.86982
1 25.3984 23.6504 10.6617
1 26.1921 22.8567 10.6617
1 26.2007 23.6634 9.88053
1 25.413 22.8338 9.8702
1 26.9858 23.6504 10.6617
1 27.7795 22.8567 10.6617
1 27.7548 23.6661 9.8519
1 26.9801 22.8466 9.87794
1 28.5732 23.6504 10.6617
1 29.3669 22.8567 10.6617
1 29.312 23.6473 9.83017
1 28.5274 22.882 9.85563
1 30 22.063 10.6617
1 0.793701 21.2693 10.6617
1 0.809496 22.0647 9.86259
1 0.0491291 21.2829 9.85028
1 1.5874 22.063 10.6617
1 2.3811 21.2693 10.6617
1 2.40017 22.0779 9.87349
1 1.61325 21.293 9.87626
1 3.1748 22.063 10.6617
1 3.9685 21.2693 10.6617
1 3.98947 22.0714 9.88278
1 3.14892 21.2926 9.85674
1 4.7622 22.063 10.6617
1 5.5559 21.2693 10.6617
1 5.56694 22.0492 9.86071
1 4.76693 21.2712 9.85538
1 6.3496 22.063 10.6617
1 7.1433 21.2693 10.6617
1 7.13974 22.0523 9.86137
1 6.35905 21.2414 9.86747
1 7.93701 22.063 10.6617
1 8.73071 21.2693 10.6617
1 8.72349 22.057 9.87781
1 7.94571 21.2551 9.84983
1 9.52441 22.063 10.6617
1 10.3181 21.2693 10.6617
1 10.3036 22.0621 9.8706
1 9.50684 21.2597 9.847
1 11.1118 22.063 10.6617
1 11.9055 21.2693 10.6617
1 11.8906 22.0547 9.87041
1 11.1125 21.2813 9.87769
1 12.6992 22.063 10.6617
1 13.4929 21.2693 10.6617
1 13.5085 22.0636 9.86177
1 12.6968 21.2512 9.87301
1 14.2866 22.063 10.6617
1 15.0803 21.2693 10.6617
1 15.0958 22.0451 9.87942
1 14.2832 21.2814 9.88719
1 15.874 22.063 10.6617
1 16.6677 21.2693 10.6617
1 16.6913 22.0531 9.86411
1 15.8828 21.257 9.89189
1 17.4614 22.063 10.6617
1 18.2551 21.2693 10.6617
1 18.2476 22.0552 9.86804
1 17.432 21.2716 9.86722
1 19.0488 22.063 10.6617
1 19.8425 21.2693 10.6617
1 19.8658 22.049 9.85239
1 19.0576 21.242 9.91449
1 20.6362 22.063 10.6617
1 21.4299 21.2693 10.6617
1 21.417 22.0888 9.87835
1 20.6548 21.247 9.86892
1 22.2236 22.063 10.6617
1 23.0173 21.2693 10.6617
1 23.0328 22.0693 9.88639
1 22.2059 21.2532 9.87209
1 23.811 22.063 10.6617
1 24.6047 21.2693 10.6617
1 24.6062 22.0731 9.86985
1 23.8326 21.2648 9.87762
1 25.3984 22.063 10.6617
1 26.1921 21.2693 10.6617
1 26.2069 22.0501 9.85282
1 25.4052 21.2885 9.86991
1 26.9858 22.063 10.6617
1 27.7795 21.2693 10.6617
1 27.7568 22.0608 9.8596
1 26.983 21.266 9.86704
1 28.5732 22.063 10.6617
1 29.3669 21.2693 10.6617
1 29.3045 22.0944 9.86474
1 28.5594 21.2806 9.85272
1 30 20.4756 10.6617
1 0.793701 19.6819 10.6617
1 0.826178 20.4957 9.87629
1 0.0521396 19.6937 9.82869
1 1.5874 20.4756 10.6617
1 2.3811 19.6819 10.6617
1 2.41663 20.468 9.86598
1 1.58158 19.6805 9.85976
1 3.1748 20.4756 10.6617
1 3.9685 19.6819 10.6617
1 3.97931 20.4811 9.87948
1 3.16835 19.6592 9.87689
1 4.7622 20.4756 10.6617
1 5.5559 19.6819 10.6617
1 5.55781 20.4728 9.86649
1 4.79154 19.6709 9.85474
1 6.3496 20.4756 10.6617
1 7.1433 19.6819 10.6617
1 7.16181 20.4895 9.86084
1 6.36442 19.6969 9.86985
1 7.93701 20.4756 10.6617
1 8.73071 19.6819 10.6617
1 8.73652 20.4891 9.87688
1 7.94978 19.6778 9.87372
1 9.52441 20.4756 10.6617
1 10.3181 19.6819 10.6617
1 10.2984 20.4926 9.85797
1 9.55761 19.6636 9.87445
1 11.1118 20.4756 10.6617
1 11.9055 19.6819 10.6617
1 11.8968 20.4802 9.87811
1 11.0949 19.695 9.86304
1 12.6992 20.4756 10.6617
1 13.4929 19.6819 10.6617
1 13.4734 20.4886 9.88566
1 12.6897 19.6859 9.86538
1 14.2866 20.4756 10.6617
1 15.0803 19.6819 10.6617
1 15.0944 20.4831 9.87324
1 14.297 19.6994 9.87715
1 15.874 20.4756 10.6617
1 16.6677 19.6819 10.6617
1 16.6704 20.4751 9.85703
1 15.8889 19.673 9.85829
1 17.4614 20.4756 10.6617
1 18.2551 19.6819 10.6617
1 18.2517 20.4477 9.87973
1 17.4519 19.6847 9.86333
1 19.0488 20.4756 10.6617
1 19.8425 19.6819 10.6617
1 19.8376 20.4905 9.87456
1 19.0309 19.6753 9.87162
1 20.6362 20.4756 10.6617
1 21.4299 19.6819 10.6617
1 21.4088 20.4507 9.8691
1 20.644 19.7044 9.84647
1 22.2236 20.4756 10.6617
1 23.0173 19.6819 10.6617
1 23.0373 20.4685 9.87856
1 22.1924 19.6567 9.86387
1 23.811 20.4756 10.6617
1 24.6047 19.6819 10.6617
1 24.6007 20.5189 9.88684
1 23.8199 19.6962 9.86915
1 25.3984 20.4756 10.6617
1 26.1921 19.6819 10.6617
1 26.1923 20.4893 9.87587
1 25.3772 19.7083 9.88819
1 26.9858 20.4756 10.6617
1 27.7795 19.6819 10.6617
1 27.7718 20.4751 9.86808
1 26.9654 19.6824 9.89304
1 28.5732 20.4756 10.6617
1 29.3669 19.6819 10.6617
1 29.3131 20.4837 9.81191
1 28.5294 19.7085 9.87134
1 30 18.8882 10.6617
1 0.793701 18.0945 10.6617
1 0.81184 18.8795 9.8653
1 0.0674754 18.0818 9.84296
1 1.5874 18.8882 10.6617
1 2.3811 18.0945 10.6617
1 2.38897 18.8809 9.83002
1 1.58822 18.1226 9.85114
1 3.1748 18.8882 10.6617
1 3.9685 18.0945 10.6617
1 3.98189 18.8781 9.88225
1 3.17277 18.1215 9.84779
1 4.7622 18.8882 10.6617
1 5.5559 18.0945 10.6617
1 5.58044 18.8697 9.86459
1 4.77071 18.1011 9.89861
1 6.3496 18.8882 10.6617
1 7.1433 18.0945 10.6617
1 7.12923 18.9082 9.8675
1 6.34677 18.0774 9.87958
1 7.93701 18.8882 10.6617
1 8.73071 18.0945 10.6617
1 8.74003 18.8944 9.8765
1 7.93738 18.098 9.86717
1 9.52441 18.8882 10.6617
1 10.3181 18.0945 10.6617
1 10.3165 18.8829 9.84795
1 9.52689 18.0919 9.87712
1 11.1118 18.8882 10.6617
1 11.9055 18.0945 10.6617
1 11.9263 18.8885 9.8553
1 11.1324 18.0988 9.87935
1 12.6992 18.8882 10.6617
1 13.4929 18.0945 10.6617
1 13.4859 18.8933 9.86983
1 12.7032 18.0909 9.86803
1 14.2866 18.8882 10.6617
1 15.0803 18.0945 10.6617
1 15.0906 18.9093 9.87439
1 14.3173 18.0941 9.86395
1 15.874 18.8882 10.6617
1 16.6677 18.0945 10.6617
1 16.659 18.9128 9.87021
1 15.8833 18.086 9.87567
1 17.4614 18.8882 10.6617
1 18.2551 18.0945 10.6617
1 18.2443 18.8857 9.86224
1 17.4334 18.1192 9.87922
1 19.0488 18.8882 10.6617
1 19.8425 18.0945 10.6617
1 19.8734 18.9191 9.86867
1 19.03 18.1113 9.8644
1 20.6362 18.8882 10.6617
1 21.4299 18.0945 10.6617
1 21.4228 18.8845 9.86341
1 20.6317 18.0853 9.85189
1 22.2236 18.8882 10.6617
1 23.0173 18.0945 10.6617
1 23.0279 18.8855 9.89093
1 22.2285 18.0917 9.87365
1 23.811 18.8882 10.6617
1 24.6047 18.0945 10.6617
1 24.5972 18.8779 9.87734
1 23.827 18.0795 9.8794
1 25.3984 18.8882 10.6617
1 26.1921 18.0945 10.6617
1 26.182 18.9196 9.85007
1 25.3979 18.0907 9.8541
1 26.9858 18.8882 10.6617
1 27.7795 18.0945 10.6617
1 27.7713 18.884 9.87294
1 26.9629 18.1058 9.89754
1 28.5732 18.8882 10.6617
1 29.3669 18.0945 10.6617
1 29.3038 18.8776 9.85467
1 28.5457 18.0859 9.87441
1 30 17.3008 10.6617
1 0.793701 16.5071 10.6617
1 0.831281 17.3175 9.87688
1 0.0695829 16.5145 9.8471
1 1.5874 17.3008 10.6617
1 2.3811 16.5071 10.6617
1 2.38503 17.321 9.86707
1 1.61361 16.4951 9.84795
1 3.1748 17.3008 10.6617
1 3.9685 16.5071 10.6617
1 3.97848 17.3171 9.85183
1 3.17877 16.4983 9.87334
1 4.7622 17.3008 10.6617
1 5.5559 16.5071 10.6617
1 5.54338 17.3358 9.87265
1 4.75086 16.5117 9.86387
1 6.3496 17.3008 10.6617
1 7.1433 16.5071 10.6617
1 7.13497 17.3173 9.87358
1 6.33685 16.5052 9.88476
1 7.93701 17.3008 10.6617
1 8.73071 16.5071 10.6617
1 8.70857 17.3134 9.89634
1 7.92432 16.4948 9.87768
1 9.52441 17.3008 10.6617
1 10.3181 16.5071 10.6617
1 10.3012 17.3218 9.87732
1 9.52348 16.5307 9.87156
1 11.1118 17.3008 10.6617
1 11.9055 16.5071 10.6617
1 11.9172 17.3212 9.86839
1 11.1019 16.5367 9.88556
1 12.6992 17.3008 10.6617
1 13.4929 16.5071 10.6617
1 13.4956 17.2883 9.85833
1 12.7236 16.512 9.85667
1 14.2866 17.3008 10.6617
1 15.0803 16.5071 10.6617
1 15.0895 17.3417 9.86354
1 14.2806 16.5021 9.89707
1 15.874 17.3008 10.6617
1 16.6677 16.5071 10.6617
1 16.6626 17.2938 9.88008
1 15.8618 16.4784 9.87729
1 17.4614 17.3008 10.6617
1 18.2551 16.5071 10.6617
1 18.2425 17.3114 9.88347
1 17.4568 16.4898 9.86428
1 19.0488 17.3008 10.6617
1 19.8425 16.5071 10.6617
1 19.8351 17.2966 9.86823
1 19.0536 16.4874 9.84274
1 20.6362 17.3008 10.6617
1 21.4299 16.5071 10.6617
1 21.4396 17.2972 9.8848
1 20.6551 16.5067 9.85474
1 22.2236 17.3008 10.6617
1 23.0173 16.5071 10.6617
1 23.03 17.2866 9.86936
1 22.2381 16.4969 9.88069
1 23.811 17.3008 10.6617
1 24.6047 16.5071 10.6617
1 24.6043 17.3034 9.85293
1 23.7944 16.4868 9.86487
1 25.3984 17.3008 10.6617
1 26.1921 16.5071 10.6617
1 26.1987 17.2861 9.86547
1 25.4095 16.4961 9.8715
1 26.9858 17.3008 10.6617
1 27.7795 16.5071 10.6617
1 27.7611 17.2672 9.87594
1 26.9566 16.5042 9.88105
1 28.5732 17.3008 10.6617
1 29.3669 16.5071 10.6617
1 29.3072 17.2826 9.84487
1 28.5287 16.51 9.88434
1 30 15.7134 10.6617
1 0.793701 14.9197 10.6617
1 0.841922 15.7261 9.84636
1 0.0681955 14.9134 9.83547
1 1.5874 15.7134 10.6617
1 2.3811 14.9197 10.6617
1 2.3978 15.7413 9.86001
1 1.61164 14.9374 9.8769
1 3.1748 15.7134 10.6617
1 3.9685 14.9197 10.6617
1 3.96108 15.7096 9.86993
1 3.17343 14.9458 9.88234
1 4.7622 15.7134 10.6617
1 5.5559 14.9197 10.6617
1 5.56223 15.7313 9.86741
1 4.79094 14.9269 9.87808
1 6.3496 15.7134 10.6617
1 7.1433 14.9197 10.6617
1 7.14843 15.708 9.84547
1 6.34054 14.938 9.87915
1 7.93701 15.7134 10.6617
1 8.73071 14.9197 10.6617
1 8.72862 15.7092 9.86381
1 7.92351 14.8967 9.86336
1 9.52441 15.7134 10.6617
1 10.3181 14.9197 10.6617
1 10.3181 15.7096 9.87226
1 9.53319 14.9146 9.88256
1 11.1118 15.7134 10.6617
1 11.9055 14.9197 10.6617
1 11.9148 15.7182 9.84936
1 11.1113 14.9288 9.88732
1 12.6992 15.7134 10.6617
1 13.4929 14.9197 10.6617
1 13.4907 15.7276 9.8765
1 12.7162 14.9321 9.88092
1 14.2866 15.7134 10.6617
1 15.0803 14.9197 10.6617
1 15.0851 15.6981 9.89327
1 14.2708 14.9023 9.86587
1 15.874 15.7134 10.6617
1 16.6677 14.9197 10.6617
1 16.6727 15.6991 9.8607
1 15.8896 14.9193 9.85916
1 17.4614 15.7134 10.6617
1 18.2551 14.9197 10.6617
1 18.272 15.696 9.85642
1 17.4556 14.9156 9.87517
1 19.0488 15.7134 10.6617
1 19.8425 14.9197 10.6617
1 19.8494 15.7023 9.86976
1 19.0288 14.9165 9.8851
1 20.6362 15.7134 10.6617
1 21.4299 14.9197 10.6617
1 21.4181 15.709 9.85827
1 20.6379 14.9177 9.86914
1 22.2236 15.7134 10.6617
1 23.0173 14.9197 10.6617
1 23.0006 15.7192 9.88771
1 22.1883 14.9422 9.85371
1 23.811 15.7134 10.6617
1 24.6047 14.9197 10.6617
1 24.597 15.7115 9.88021
1 23.8237 14.9058 9.87285
1 25.3984 15.7134 10.6617
1 26.1921 14.9197 10.6617
1 26.169 15.7131 9.90529
1 25.3899 14.8988 9.87663
1 26.9858 15.7134 10.6617
1 27.7795 14.9197 10.6617
1 27.7688 15.7009 9.87507
1 26.9707 14.9263 9.85776
1 28.5732 15.7134 10.6617
1 29.3669 14.9197 10.6617
1 29.2946 15.7098 9.82574
1 28.5793 14.8992 9.88719
1 30 14.126 10.6617
1 0.793701 13.3323 10.6617
1 0.827618 14.1192 9.85528
1 0.0460502 13.3415 9.83179
1 1.5874 14.126 10.6617
1 2.3811 13.3323 10.6617
1 2.39792 14.1114 9.84818
1 1.60464 13.3361 9.84615
1 3.1748 14.126 10.6617
1 3.9685 13.3323 10.6617
1 3.95606 14.1279 9.83251
1 3.20091 13.3426 9.87184
1 4.7622 14.126 10.6617
1 5.5559 13.3323 10.6617
1 5.54588 14.1115 9.87011
1 4.75869 13.3581 9.88422
1 6.3496 14.126 10.6617
1 7.1433 13.3323 10.6617
1 7.15279 14.1158 9.89895
1 6.34847 13.3438 9.88373
1 7.93701 14.126 10.6617
1 8.73071 13.3323 10.6617
1 8.75633 14.155 9.88069
1 7.93822 13.3454 9.85691
1 9.52441 14.126 10.6617
1 10.3181 13.3323 10.6617
1 10.3224 14.1224 9.8892
1 9.51159 13.335 9.86909
1 11.1118 14.126 10.6617
1 11.9055 13.3323 10.6617
1 11.9243 14.1366 9.87349
1 11.1382 13.3446 9.86234
1 12.6992 14.126 10.6617
1 13.4929 13.3323 10.6617
1 13.507 14.1278 9.86335
1 12.7198 13.3363 9.84321
1 14.2866 14.126 10.6617
1 15.0803 13.3323 10.6617
1 15.0622 14.1187 9.86125
1 14.2664 13.316 9.86895
1 15.874 14.126 10.6617
1 16.6677 13.3323 10.6617
1 16.656 14.1042 9.86054
1 15.8845 13.3263 9.86717
1 17.4614 14.126 10.6617
1 18.2551 13.3323 10.6617
1 18.2642 14.1479 9.89736
1 17.4801 13.3499 9.86732
1 19.0488 14.126 10.6617
1 19.8425 13.3323 10.6617
1 19.8532 14.1411 9.88078
1 19.026 13.3553 9.85802
1 20.6362 14.126 10.6617
1 21.4299 13.3323 10.6617
1 21.4088 14.1252 9.88855
1 20.6298 13.3157 9.87999
1 22.2236 14.126 10.6617
1 23.0173 13.3323 10.6617
1 23.0118 14.1026 9.84972
1 22.2216 13.3524 9.88557
1 23.811 14.126 10.6617
1 24.6047 13.3323 10.6617
1 24.6005 14.1121 9.86217
1 23.8067 13.3435 9.85258
1 25.3984 14.126 10.6617
1 26.1921 13.3323 10.6617
1 26.2001 14.1099 9.88482
1 25.387 13.3256 9.85693
1 26.9858 14.126 10.6617
1 27.7795 13.3323 10.6617
1 27.7604 14.1305 9.8636
1 26.9869 13.316 9.87086
1 28.5732 14.126 10.6617
1 29.3669 13.3323 10.6617
1 29.2858 14.1208 9.85031
1 28.529 13.3052 9.84449
1 30 12.5386 10.6617
1 0.793701 11.7449 10.6617
1 0.827754 12.5349 9.87534
1 0.0591507 11.7506 9.85546
1 1.5874 12.5386 10.6617
1 2.3811 11.7449 10.6617
1 2.38917 12.5418 9.86518
1 1.58979 11.7296 9.88852
1 3.1748 12.5386 10.6617
1 3.9685 11.7449 10.6617
1 3.95535 12.5514 9.86085
1 3.18765 11.7421 9.88796
1 4.7622 12.5386 10.6617
1 5.5559 11.7449 10.6617
1 5.55816 12.5279 9.85821
1 4.7788 11.7602 9.87252
1 6.3496 12.5386 10.6617
1 7.1433 11.7449 10.6617
1 7.14297 12.5392 9.87091
1 6.35937 11.7295 9.87296
1 7.93701 12.5386 10.6617
1 8.73071 11.7449 10.6617
1 8.72677 12.5555 9.8916
1 7.95083 11.752 9.86882
1 9.52441 12.5386 10.6617
1 10.3181 11.7449 10.6617
1 10.3118 12.5442 9.84996
1 9.49708 11.752 9.86686
1 11.1118 12.5386 10.6617
1 11.9055 11.7449 10.6617
1 11.9374 12.5203 9.86416
1 11.1271 11.7681 9.85639
1 12.6992 12.5386 10.6617
1 13.4929 11.7449 10.6617
1 13.5038 12.5148 9.85786
1 12.6608 11.7344 9.87981
1 14.2866 12.5386 10.6617
1 15.0803 11.7449 10.6617
1 15.095 12.5728 9.86342
1 14.2962 11.7373 9.84379
1 15.874 12.5386 10.6617
1 16.6677 11.7449 10.6617
1 16.6826 12.5381 9.8477
1 15.873 11.7309 9.86004
1 17.4614 12.5386 10.6617
1 18.2551 11.7449 10.6617
1 18.2531 12.5327 9.85889
1 17.4465 11.7226 9.86276
1 19.0488 12.5386 10.6617
1 19.8425 11.7449 10.6617
1 19.8384 12.5681 9.86042
1 19.0371 11.7706 9.87637
1 20.6362 12.5386 10.6617
1 21.4299 11.7449 10.6617
1 21.4311 12.5449 9.86201
1 20.6465 11.7249 9.8834
1 22.2236 12.5386 10.6617
1 23.0173 11.7449 10.6617
1 23.0199 12.5492 9.87315
1 22.2127 11.7485 9.88374
1 23.811 12.5386 10.6617
1 24.6047 11.7449 10.6617
1 24.5797 12.5375 9.86881
1 23.8234 11.7388 9.85407
1 25.3984 12.5386 10.6617
1 26.1921 11.7449 10.6617
1 26.1853 12.5413 9.89691
1 25.4023 11.7215 9.86366
1 26.9858 12.5386 10.6617
1 27.7795 11.7449 10.6617
1 27.7499 12.5127 9.87579
1 26.9528 11.7445 9.86614
1 28.5732 12.5386 10.6617
1 29.3669 11.7449 10.6617
1 29.303 12.5256 9.84668
1 28.5697 11.7424 9.86701
1 30 10.9512 10.6617
1 0.793701 10.1575 10.6617
1 0.798561 10.9308 9.87669
1 0.0654595 10.1396 9.83132
1 1.5874 10.9512 10.6617
1 2.3811 10.1575 10.6617
1 2.37773 10.9486 9.87388
1 1.59144 10.1538 9.86476
1 3.1748 10.9512 10.6617
1 3.9685 10.1575 10.6617
1 4.00244 10.9541 9.88492
1 3.15598 10.1621 9.90727
1 4.7622 10.9512 10.6617
1 5.5559 10.1575 10.6617
1 5.55209 10.9307 9.88539
1 4.75707 10.1527 9.86028
1 6.3496 10.9512 10.6617
1 7.1433 10.1575 10.6617
1 7.19937 10.9344 9.8782
1 6.37797 10.1698 9.88388
1 7.93701 10.9512 10.6617
1 8.73071 10.1575 10.6617
1 8.74617 10.9558 9.8874
1 7.94883 10.1422 9.88885
1 9.52441 10.9512 10.6617
1 10.3181 10.1575 10.6617
1 10.296 10.9631 9.89867
1 9.53196 10.1444 9.84321
1 11.1118 10.9512 10.6617
1 11.9055 10.1575 10.6617
1 11.9039 10.956 9.84866
1 11.1206 10.1392 9.88462
1 12.6992 10.9512 10.6617
1 13.4929 10.1575 10.6617
1 13.4874 10.9389 9.86678
1 12.7077 10.181 9.87478
1 14.2866 10.9512 10.6617
1 15.0803 10.1575 10.6617
1 15.1014 10.9387 9.88546
1 14.2995 10.1456 9.87713
1 15.874 10.9512 10.6617
1 16.6677 10.1575 10.6617
1 16.6851 10.9293 9.87174
1 15.8899 10.1457 9.85362
1 17.4614 10.9512 10.6617
1 18.2551 10.1575 10.6617
1 18.2574 10.9333 9.87578
1 17.4688 10.1453 9.86929
1 19.0488 10.9512 10.6617
1 19.8425 10.1575 10.6617
1 19.8493 10.9597 9.87815
1 19.0531 10.1439 9.87587
1 20.6362 10.9512 10.6617
1 21.4299 10.1575 10.6617
1 21.4358 10.9468 9.85845
1 20.6337 10.167 9.8781
1 22.2236 10.9512 10.6617
1 23.0173 10.1575 10.6617
1 23.0176 10.9446 9.86401
1 22.2258 10.1525 9.88387
1 23.811 10.9512 10.6617
1 24.6047 10.1575 10.6617
1 24.6014 10.9662 9.85382
1 23.7843 10.1598 9.86448
1 25.3984 10.9512 10.6617
1 26.1921 10.1575 10.6617
1 26.1712 10.9471 9.87262
1 25.3829 10.1547 9.87551
1 26.9858 10.9512 10.6617
1 27.7795 10.1575 10.6617
1 27.7571 10.9488 9.8618
1 26.9688 10.1438 9.85734
1 28.5732 10.9512 10.6617
1 29.3669 10.1575 10.6617
1 29.3048 10.9535 9.85065
1 28.5327 10.142 9.85918
1 30 9.36379 10.6617
1 0.793701 8.57009 10.6617
1 0.802539 9.36459 9.84899
1 0.0679479 8.57205 9.8398
1 1.5874 9.36379 10.6617
1 2.3811 8.57009 10.6617
1 2.38102 9.35702 9.85004
1 1.599 8.60002 9.86632
1 3.1748 9.36379 10.6617
1 3.9685 8.57009 10.6617
1 3.94158 9.38884 9.88583
1 3.17695 8.57224 9.87799
1 4.7622 9.36379 10.6617
1 5.5559 8.57009 10.6617
1 5.55202 9.37021 9.85578
1 4.76313 8.58868 9.86597
1 6.3496 9.36379 10.6617
1 7.1433 8.57009 10.6617
1 7.15108 9.34683 9.85009
1 6.34638 8.59036 9.86137
1 7.93701 9.36379 10.6617
1 8.73071 8.57009 10.6617
1 8.74262 9.36165 9.88363
1 7.93907 8.56025 9.86406
1 9.52441 9.36379 10.6617
1 10.3181 8.57009 10.6617
1 10.2952 9.37249 9.88619
1 9.51802 8.57273 9.8711
1 11.1118 9.36379 10.6617
1 11.9055 8.57009 10.6617
1 11.9283 9.36272 9.87518
1 11.1174 8.56944 9.85333
1 12.6992 9.36379 10.6617
1 13.4929 8.57009 10.6617
1 13.4856 9.3484 9.86466
1 12.6819 8.54647 9.88603
1 14.2866 9.36379 10.6617
1 15.0803 8.57009 10.6617
1 15.0792 9.34055 9.87684
1 14.2612 8.56675 9.88098
1 15.874 9.36379 10.6617
1 16.6677 8.57009 10.6617
1 16.6787 9.36652 9.85202
1 15.8662 8.55968 9.89462
1 17.4614 9.36379 10.6617
1 18.2551 8.57009 10.6617
1 18.2617 9.35802 9.86691
1 17.4851 8.56254 9.84105
1 19.0488 9.36379 10.6617
1 19.8425 8.57009 10.6617
1 19.8553 9.33665 9.87719
1 19.0537 8.58764 9.82442
1 20.6362 9.36379 10.6617
1 21.4299 8.57009 10.6617
1 21.414 9.36514 9.86058
1 20.6491 8.55792 9.86621
1 22.2236 9.36379 10.6617
1 23.0173 8.57009 10.6617
1 23.0078 9.39004 9.85535
1 22.212 8.61967 9.86176
1 23.811 9.36379 10.6617
1 24.6047 8.57009 10.6617
1 24.594 9.37305 9.8632
1 23.7865 8.58669 9.86623
1 25.3984 9.36379 10.6617
1 26.1921 8.57009 10.6617
1 26.192 9.34778 9.86009
1 25.3849 8.58329 9.88768
1 26.9858 9.36379 10.6617
1 27.7795 8.57009 10.6617
1 27.762 9.38138 9.85731
1 26.9828 8.55817 9.86378
1 28.5732 9.36379 10.6617
1 29.3669 8.57009 10.6617
1 29.2745 9.36613 9.84387
1 28.5271 8.55654 9.85639
1 30 7.77639 10.6617
1 0.793701 6.98268 10.6617
1 0.825982 7.77973 9.87553
1 0.0772972 6.976 9.8521
1 1.5874 7.77639 10.6617
1 2.3811 6.98268 10.6617
1 2.38814 7.80501 9.87429
1 1.60986 6.97453 9.85279
1 3.1748 7.77639 10.6617
1 3.9685 6.98268 10.6617
1 3.97872 7.79198 9.88014
1 3.1809 6.97455 9.85935
1 4.7622 7.77639 10.6617
1 5.5559 6.98268 10.6617
1 5.55386 7.75711 9.85344
1 4.75254 6.97519 9.85076
1 6.3496 7.77639 10.6617
1 7.1433 6.98268 10.6617
1 7.1388 7.76466 9.89995
1 6.36477 6.9767 9.88775
1 7.93701 7.77639 10.6617
1 8.73071 6.98268 10.6617
1 8.74634 7.78826 9.85615
1 7.95775 6.97606 9.84654
1 9.52441 7.77639 10.6617
1 10.3181 6.98268 10.6617
1 10.3161 7.79564 9.86927
1 9.50346 6.99833 9.88171
1 11.1118 7.77639 10.6617
1 11.9055 6.98268 10.6617
1 11.9178 7.78727 9.85349
1 11.1024 7.00389 9.8722
1 12.6992 7.77639 10.6617
1 13.4929 6.98268 10.6617
1 13.5033 7.78029 9.84905
1 12.6985 7.01934 9.84707
1 14.2866 7.77639 10.6617
1 15.0803 6.98268 10.6617
1 15.0521 7.7853 9.8682
1 14.2594 6.97448 9.87885
1 15.874 7.77639 10.6617
1 16.6677 6.98268 10.6617
1 16.6464 7.77545 9.85776
1 15.8505 6.97508 9.84359
1 17.4614 7.77639 10.6617
1 18.2551 6.98268 10.6617
1 18.2928 7.78619 9.85739
1 17.4677 7.01316 9.86879
1 19.0488 7.77639 10.6617
1 19.8425 6.98268 10.6617
1 19.8561 7.76592 9.87256
1 19.0522 7.01622 9.85773
1 20.6362 7.77639 10.6617
1 21.4299 6.98268 10.6617
1 21.4587 7.79685 9.87693
1 20.655 7.02245 9.88562
1 22.2236 7.77639 10.6617
1 23.0173 6.98268 10.6617
1 22.9901 7.78395 9.86002
1 22.2021 6.98654 9.86796
1 23.811 7.77639 10.6617
1 24.6047 6.98268 10.6617
1 24.5904 7.76269 9.87992
1 23.7995 6.95382 9.85576
1 25.3984 7.77639 10.6617
1 26.1921 6.98268 10.6617
1 26.193 7.77579 9.84583
1 25.4195 6.97022 9.8744
1 26.9858 7.77639 10.6617
1 27.7795 6.98268 10.6617
1 27.7714 7.78026 9.86645
1 26.9798 6.98208 9.85931
1 28.5732 7.77639 10.6617
1 29.3669 6.98268 10.6617
1 29.3008 7.78234 9.85656
1 28.5459 6.97663 9.87612
1 30 6.18898 10.6617
1 0.793701 5.39528 10.6617
1 0.862913 6.1691 9.84438
1 0.0497452 5.38466 9.82569
1 1.5874 6.18898 10.6617
1 2.3811 5.39528 10.6617
1 2.40114 6.18613 9.86466
1 1.59631 5.38163 9.89189
1 3.1748 6.18898 10.6617
1 3.9685 5.39528 10.6617
1 3.9905 6.19442 9.84705
1 3.19862 5.39764 9.86889
1 4.7622 6.18898 10.6617
1 5.5559 5.39528 10.6617
1 5.56498 6.21274 9.88681
1 4.77861 5.37377 9.88725
1 6.3496 6.18898 10.6617
1 7.1433 5.39528 10.6617
1 7.15634 6.16109 9.85809
1 6.32177 5.40208 9.8863
1 7.93701 6.18898 10.6617
1 8.73071 5.39528 10.6617
1 8.74436 6.2005 9.87514
1 7.96118 5.4094 9.87946