LAMMPS (7 Aug 2019)
#--- Brush Variables---#
variable      f      index  1 2 0.5
variable      M      equal  $(v_f * 30)                 # The number of polymer chains on each brush
variable      M      equal  30                 
variable      N      string 30                 # The number of beads per chain
variable      xhi    equal  $(sqrt(v_f) * 20)                 # The width of the polymer Brush
variable      xhi    equal  20                 
variable      yhi    equal  $(sqrt(v_f) * 20)                 # The length of the polymer Brush
variable      yhi    equal  20                 
variable      wthick equal  3                  # The thickness of the walls wthick=1,2,3,4 gives 2,3,4,6 layers respectively

#--- Simulation Variables ---#
variable       Temp      index 1        #0.8 1 1.68                 #[Grest96]
variable       Tstep     equal 0.005                       # Timestep in Tau (default = 0.005)
variable       Nequil    equal 300000                       # Number of timesteps to equilibrate
variable       Ncomp     equal 700000                     # Number of timesteps to compress - until no more occilation of walls
variable       Nshear    equal 800000      #2000000                      # Number of timesteps to shear - use approx 4ns for 10m/s
variable       Nthermo   equal 1000                        # Number of timesteps between thermo data prints
variable       Ndump_e   equal 10000
variable       Ndump_c   equal 10000                      # Number of timesteps per dump file (compression)
variable       Ndump_s   equal 10000                       # Number of timesteps per dump file (shear)
variable       Wall_v    index 0.5   #0.001 0.01 0.1 0.2 0.4 0.6 0.8 1 1.2 1.4 1.6 1.8 2   # 0.005 0.05 0.1 0.5 1.5 0.001 0.003 0.2 0.0002 2                      # Wall velocity (A/fs) - equal to 10 m/s
variable       Pcomp     index 3 #3 4 5 8 10 1.50 0.5 0.05

label          sim
include        MDPBB.in
# This is an input script that creates a mono disperse polymer brush bilayer
# A coarse grained bead-spring model is used for the polymers which are end
# grafted to the surfaces of 2 opposing FCC walls at random sites.

#--- Initialization ---#

dimension     3
boundary      p p f
units         lj
atom_style    bond


#--- Moved to main.in ---#
#variable      M      equal  50                # The number of polymer chains on each brush
#variable      N      string 80                # The number of beads per chain
#variable      xhi    equal  15                # The width of the polymer Brush
#variable      yhi    equal  20                # The length of the polymer Brush
#variable      wthick equal  3                 # The thickness of the walls wthick=1,2,3,4 gives 2,3,4,6 layers respectively

variable      zhi    equal  $(1.1 * 2 * v_N + (2 * v_wthick))  # The initial height of the simulation box the value is such that no overlaps occur
variable      zhi    equal  72  
variable      z0     equal  $((v_zhi)/4 - (v_N)/30)          # This is the location at which to place the CoM of the molecule
variable      z0     equal  17          

print "The number of grafted chains = $(v_M)"
The number of grafted chains = 30
print "The number of beads per chain = $(v_N)"
The number of beads per chain = 30

variable      check  equal count(all)         # The number of atoms in the system
variable      ntwall equal count(twall)       # The number of atoms in the top wall
variable      nbwall equal count(bwall)       # The number of atoms in the bottom wall
variable      s equal 234897  #45335              # Seed for the RNG

print "zhi = ${zhi}"
zhi = 72

#--- Create the simulation box ---#

region        sbox block 0 ${xhi} 0 ${yhi} 0 ${zhi}
region        sbox block 0 20 0 ${yhi} 0 ${zhi}
region        sbox block 0 20 0 20 0 ${zhi}
region        sbox block 0 20 0 20 0 72
create_box    4 sbox bond/types 3 extra/bond/per/atom 12 extra/special/per/atom 2
Created orthogonal box = (0 0 0) to (20 20 72)
  1 by 1 by 1 MPI processor grid

mass          1 2.0                   # Wall atoms that are not grafted
mass          2 1.0                   # Grafted bead
mass          3 1.0                   # The rest of the beads on the chain
mass          4 2.0                   # Wall atoms that the chains are grafted to

bond_style    hybrid fene harmonic    # Finitely extensible linearly elastic bond between neighbouring beads
#bond_coeff    1 fene 30.0 1.5 0.0 0.0      # Values obtained from literature [Grest, Galushcko]
bond_coeff    1 fene 30.0 30.0 0.0 0.0
bond_coeff    2 fene 30.0 30.0 0.0 0.0       # This is the grafting bond between the polymer and the wall atom
special_bonds fene                    #
  0 = max # of 1-2 neighbors
  5 = max # of special neighbors
  special bonds CPU = 4.81606e-05 secs
pair_style	  lj/cut 1.122462         # LJ potential with rc=2^1/6
#pair_coeff	  * * 1.0 1.0             # LJ potential acts between all atoms
pair_coeff    1 1 0.0 0.0
pair_coeff    1 2 1.0 1.0
pair_coeff    1 3 1.0 1.0
pair_coeff    2 2 1.0 1.0
pair_coeff    2 3 1.0 1.0
pair_coeff    2 4 1.0 1.0
pair_coeff    3 3 1.0 1.0
pair_coeff    3 4 1.0 1.0
pair_coeff    4 4 0.0 0.0
neighbor      10 bin                  #
neigh_modify  one 4000

#--- Create and read the molecule file ---#
python        BSMolf input 1 $N format i file BSMolf.py
python        BSMolf input 1 30 format i file BSMolf.py
python        BSMolf invoke    # Call the python function with number of beads to write the mol file
molecule      bs     bsmol.txt     # Read the Mol file to define the polymer chain
Read molecule bs:
  30 atoms with max type 2
  29 bonds with max type 1
  0 angles with max type 0
  0 dihedrals with max type 0
  0 impropers with max type 0

#--- Define the FCC wall region ---#
region        wall  block 0 ${xhi} 0 ${yhi} 0 ${wthick}
region        wall  block 0 20 0 ${yhi} 0 ${wthick}
region        wall  block 0 20 0 20 0 ${wthick}
region        wall  block 0 20 0 20 0 3
lattice       fcc 1
Lattice spacing in x,y,z = 1.5874 1.5874 1.5874

#--- Create the Top Brush  (At the bottom then rotate 180 degrees to top) ---#

create_atoms  1 region wall
Created 1352 atoms
  create_atoms CPU = 0.00186181 secs
group         twall  region wall
1352 atoms in group twall
#group         tsurf  region wsurf

# A loop to insert the Chains into the sim box
variable      i loop $M                                   # Index to insert N total number of chains
variable      i loop 30                                   
label         loop                                        # Start of loop
variable      randni equal round(random(1,${ntwall},$s))  # Pick a random "top" wall atom
variable      randni equal round(random(1,1352,$s))  
variable      randni equal round(random(1,1352,234897))  
variable      randatomi equal ${randni}                   # This is to obtain an integer number for atom-id
variable      randatomi equal 850                   
variable      randzi equal z[${randatomi}]                # Determine the z coordinate of the chosen atom
variable      randzi equal z[850]                
# if the chosen atom is not a surface atom then restart the loop
if            "${randzi} < $(v_wthick - 0.7)" then "jump MDPBB.in loop"
jump MDPBB.in loop
variable      randni equal round(random(1,${ntwall},$s))  # Pick a random "top" wall atom
variable      randni equal round(random(1,1352,$s))  
variable      randni equal round(random(1,1352,234897))  
variable      randatomi equal ${randni}                   # This is to obtain an integer number for atom-id
variable      randatomi equal 213                   
variable      randzi equal z[${randatomi}]                # Determine the z coordinate of the chosen atom
variable      randzi equal z[213]                
# if the chosen atom is not a surface atom then restart the loop
if            "${randzi} < $(v_wthick - 0.7)" then "jump MDPBB.in loop"
jump MDPBB.in loop
variable      randni equal round(random(1,${ntwall},$s))  # Pick a random "top" wall atom
variable      randni equal round(random(1,1352,$s))  
variable      randni equal round(random(1,1352,234897))  
variable      randatomi equal ${randni}                   # This is to obtain an integer number for atom-id
variable      randatomi equal 1022                   
variable      randzi equal z[${randatomi}]                # Determine the z coordinate of the chosen atom
variable      randzi equal z[1022]                
# if the chosen atom is not a surface atom then restart the loop
if            "${randzi} < $(v_wthick - 0.7)" then "jump MDPBB.in loop"
jump MDPBB.in loop
variable      randni equal round(random(1,${ntwall},$s))  # Pick a random "top" wall atom
variable      randni equal round(random(1,1352,$s))  
variable      randni equal round(random(1,1352,234897))  
variable      randatomi equal ${randni}                   # This is to obtain an integer number for atom-id
variable      randatomi equal 1031                   
variable      randzi equal z[${randatomi}]                # Determine the z coordinate of the chosen atom
variable      randzi equal z[1031]                
# if the chosen atom is not a surface atom then restart the loop
if            "${randzi} < $(v_wthick - 0.7)" then "jump MDPBB.in loop"
set           atom ${randatomi} type 4                    # Set this grafted wall atom as a new type
set           atom 1031 type 4                    
  1 settings made for type
group         twg id ${randatomi}                         # Add this atom to a top-wall-grafted group
group         twg id 1031                         
1 atoms in group twg
variable      twgcount equal count(twg)
print         "twg contains ${twgcount}"
twg contains 1
print         "i = $(v_i)"                                # The index i should always be equal to the number of atom in twg
i = 1
variable      x0 equal x[${randatomi}]                    # Determine its x-coord
variable      x0 equal x[1031]                    
variable      y0 equal y[${randatomi}]                    # Determine its y-coord
variable      y0 equal y[1031]                    
variable      check0 equal ${check}                       # Count the number of atoms in the simulation
variable      check0 equal 1352                       
variable      b equal ${check}+1                          # The grafted bead id will be one higher after being inserted
variable      b equal 1352+1                          
if            "${twgcount} != $(v_i)" then "jump MDPBB.in loop"
# Otherwise insert the chain directly above the chosen wall atom pointing perpendicular to the wall
create_atoms  1 single ${x0} ${y0} ${z0} mol bs 24987 units box remap yes rotate 0 0 0 1
create_atoms  1 single 16.6677110456661 ${y0} ${z0} mol bs 24987 units box remap yes rotate 0 0 0 1
create_atoms  1 single 16.6677110456661 9.5244063118092 ${z0} mol bs 24987 units box remap yes rotate 0 0 0 1
create_atoms  1 single 16.6677110456661 9.5244063118092 17 mol bs 24987 units box remap yes rotate 0 0 0 1
Created 30 atoms
  create_atoms CPU = 0.000110865 secs
variable      check1 equal ${check}               # Count the new total number of atoms
variable      check1 equal 1382               
# Check that the molecule has indeed been inserted (This check is no longer an issue).
if            "${check1} != ${check0}" then "create_bonds  single/bond 2 ${randatomi} $b" "next i"
create_bonds  single/bond 2 ${randatomi} $b
create_bonds  single/bond 2 1031 $b
create_bonds  single/bond 2 1031 1353
  2 = max # of 1-2 neighbors
  5 = max # of special neighbors
  special bonds CPU = 0.000190973 secs
next i
jump MDPBB.in loop    # End of the loop
variable      randni equal round(random(1,${ntwall},$s))  # Pick a random "top" wall atom
variable      randni equal round(random(1,1352,$s))  
variable      randni equal round(random(1,1352,234897))  
variable      randatomi equal ${randni}                   # This is to obtain an integer number for atom-id
variable      randatomi equal 982                   
variable      randzi equal z[${randatomi}]                # Determine the z coordinate of the chosen atom
variable      randzi equal z[982]                
# if the chosen atom is not a surface atom then restart the loop
if            "${randzi} < $(v_wthick - 0.7)" then "jump MDPBB.in loop"
jump MDPBB.in loop
variable      randni equal round(random(1,${ntwall},$s))  # Pick a random "top" wall atom
variable      randni equal round(random(1,1352,$s))  
variable      randni equal round(random(1,1352,234897))  
variable      randatomi equal ${randni}                   # This is to obtain an integer number for atom-id
variable      randatomi equal 1332                   
variable      randzi equal z[${randatomi}]                # Determine the z coordinate of the chosen atom
variable      randzi equal z[1332]                
# if the chosen atom is not a surface atom then restart the loop
if            "${randzi} < $(v_wthick - 0.7)" then "jump MDPBB.in loop"
set           atom ${randatomi} type 4                    # Set this grafted wall atom as a new type
set           atom 1332 type 4                    
  1 settings made for type
group         twg id ${randatomi}                         # Add this atom to a top-wall-grafted group
group         twg id 1332                         
2 atoms in group twg
variable      twgcount equal count(twg)
print         "twg contains ${twgcount}"
twg contains 2
print         "i = $(v_i)"                                # The index i should always be equal to the number of atom in twg
i = 2
variable      x0 equal x[${randatomi}]                    # Determine its x-coord
variable      x0 equal x[1332]                    
variable      y0 equal y[${randatomi}]                    # Determine its y-coord
variable      y0 equal y[1332]                    
variable      check0 equal ${check}                       # Count the number of atoms in the simulation
variable      check0 equal 1382                       
variable      b equal ${check}+1                          # The grafted bead id will be one higher after being inserted
variable      b equal 1382+1                          
if            "${twgcount} != $(v_i)" then "jump MDPBB.in loop"
# Otherwise insert the chain directly above the chosen wall atom pointing perpendicular to the wall
create_atoms  1 single ${x0} ${y0} ${z0} mol bs 24987 units box remap yes rotate 0 0 0 1
create_atoms  1 single 11.1118073637774 ${y0} ${z0} mol bs 24987 units box remap yes rotate 0 0 0 1
create_atoms  1 single 11.1118073637774 19.8425131496025 ${z0} mol bs 24987 units box remap yes rotate 0 0 0 1
create_atoms  1 single 11.1118073637774 19.8425131496025 17 mol bs 24987 units box remap yes rotate 0 0 0 1
Created 30 atoms
  create_atoms CPU = 6.79493e-05 secs
variable      check1 equal ${check}               # Count the new total number of atoms
variable      check1 equal 1412               
# Check that the molecule has indeed been inserted (This check is no longer an issue).
if            "${check1} != ${check0}" then "create_bonds  single/bond 2 ${randatomi} $b" "next i"
create_bonds  single/bond 2 ${randatomi} $b
create_bonds  single/bond 2 1332 $b
create_bonds  single/bond 2 1332 1383
  2 = max # of 1-2 neighbors
  5 = max # of special neighbors
  special bonds CPU = 0.000187159 secs
next i
jump MDPBB.in loop    # End of the loop
variable      randni equal round(random(1,${ntwall},$s))  # Pick a random "top" wall atom
variable      randni equal round(random(1,1352,$s))  
variable      randni equal round(random(1,1352,234897))  
variable      randatomi equal ${randni}                   # This is to obtain an integer number for atom-id
variable      randatomi equal 643                   
variable      randzi equal z[${randatomi}]                # Determine the z coordinate of the chosen atom
variable      randzi equal z[643]                
# if the chosen atom is not a surface atom then restart the loop
if            "${randzi} < $(v_wthick - 0.7)" then "jump MDPBB.in loop"
jump MDPBB.in loop
variable      randni equal round(random(1,${ntwall},$s))  # Pick a random "top" wall atom
variable      randni equal round(random(1,1352,$s))  
variable      randni equal round(random(1,1352,234897))  
variable      randatomi equal ${randni}                   # This is to obtain an integer number for atom-id
variable      randatomi equal 454                   
variable      randzi equal z[${randatomi}]                # Determine the z coordinate of the chosen atom
variable      randzi equal z[454]                
# if the chosen atom is not a surface atom then restart the loop
if            "${randzi} < $(v_wthick - 0.7)" then "jump MDPBB.in loop"
jump MDPBB.in loop
variable      randni equal round(random(1,${ntwall},$s))  # Pick a random "top" wall atom
variable      randni equal round(random(1,1352,$s))  
variable      randni equal round(random(1,1352,234897))  
variable      randatomi equal ${randni}                   # This is to obtain an integer number for atom-id
variable      randatomi equal 585                   
variable      randzi equal z[${randatomi}]                # Determine the z coordinate of the chosen atom
variable      randzi equal z[585]                
# if the chosen atom is not a surface atom then restart the loop
if            "${randzi} < $(v_wthick - 0.7)" then "jump MDPBB.in loop"
jump MDPBB.in loop
variable      randni equal round(random(1,${ntwall},$s))  # Pick a random "top" wall atom
variable      randni equal round(random(1,1352,$s))  
variable      randni equal round(random(1,1352,234897))  
variable      randatomi equal ${randni}                   # This is to obtain an integer number for atom-id
variable      randatomi equal 979                   
variable      randzi equal z[${randatomi}]                # Determine the z coordinate of the chosen atom
variable      randzi equal z[979]                
# if the chosen atom is not a surface atom then restart the loop
if            "${randzi} < $(v_wthick - 0.7)" then "jump MDPBB.in loop"
set           atom ${randatomi} type 4                    # Set this grafted wall atom as a new type
set           atom 979 type 4                    
  1 settings made for type
group         twg id ${randatomi}                         # Add this atom to a top-wall-grafted group
group         twg id 979                         
3 atoms in group twg
variable      twgcount equal count(twg)
print         "twg contains ${twgcount}"
twg contains 3
print         "i = $(v_i)"                                # The index i should always be equal to the number of atom in twg
i = 3
variable      x0 equal x[${randatomi}]                    # Determine its x-coord
variable      x0 equal x[979]                    
variable      y0 equal y[${randatomi}]                    # Determine its y-coord
variable      y0 equal y[979]                    
variable      check0 equal ${check}                       # Count the number of atoms in the simulation
variable      check0 equal 1412                       
variable      b equal ${check}+1                          # The grafted bead id will be one higher after being inserted
variable      b equal 1412+1                          
if            "${twgcount} != $(v_i)" then "jump MDPBB.in loop"
# Otherwise insert the chain directly above the chosen wall atom pointing perpendicular to the wall
create_atoms  1 single ${x0} ${y0} ${z0} mol bs 24987 units box remap yes rotate 0 0 0 1
create_atoms  1 single 16.6677110456661 ${y0} ${z0} mol bs 24987 units box remap yes rotate 0 0 0 1
create_atoms  1 single 16.6677110456661 7.937005259841 ${z0} mol bs 24987 units box remap yes rotate 0 0 0 1
create_atoms  1 single 16.6677110456661 7.937005259841 17 mol bs 24987 units box remap yes rotate 0 0 0 1
Created 30 atoms
  create_atoms CPU = 8.01086e-05 secs
variable      check1 equal ${check}               # Count the new total number of atoms
variable      check1 equal 1442               
# Check that the molecule has indeed been inserted (This check is no longer an issue).
if            "${check1} != ${check0}" then "create_bonds  single/bond 2 ${randatomi} $b" "next i"
create_bonds  single/bond 2 ${randatomi} $b
create_bonds  single/bond 2 979 $b
create_bonds  single/bond 2 979 1413
  2 = max # of 1-2 neighbors
  5 = max # of special neighbors
  special bonds CPU = 0.000196934 secs
next i
jump MDPBB.in loop    # End of the loop
variable      randni equal round(random(1,${ntwall},$s))  # Pick a random "top" wall atom
variable      randni equal round(random(1,1352,$s))  
variable      randni equal round(random(1,1352,234897))  
variable      randatomi equal ${randni}                   # This is to obtain an integer number for atom-id
variable      randatomi equal 1211                   
variable      randzi equal z[${randatomi}]                # Determine the z coordinate of the chosen atom
variable      randzi equal z[1211]                
# if the chosen atom is not a surface atom then restart the loop
if            "${randzi} < $(v_wthick - 0.7)" then "jump MDPBB.in loop"
set           atom ${randatomi} type 4                    # Set this grafted wall atom as a new type
set           atom 1211 type 4                    
  1 settings made for type
group         twg id ${randatomi}                         # Add this atom to a top-wall-grafted group
group         twg id 1211                         
4 atoms in group twg
variable      twgcount equal count(twg)
print         "twg contains ${twgcount}"
twg contains 4
print         "i = $(v_i)"                                # The index i should always be equal to the number of atom in twg
i = 4
variable      x0 equal x[${randatomi}]                    # Determine its x-coord
variable      x0 equal x[1211]                    
variable      y0 equal y[${randatomi}]                    # Determine its y-coord
variable      y0 equal y[1211]                    
variable      check0 equal ${check}                       # Count the number of atoms in the simulation
variable      check0 equal 1442                       
variable      b equal ${check}+1                          # The grafted bead id will be one higher after being inserted
variable      b equal 1442+1                          
if            "${twgcount} != $(v_i)" then "jump MDPBB.in loop"
# Otherwise insert the chain directly above the chosen wall atom pointing perpendicular to the wall
create_atoms  1 single ${x0} ${y0} ${z0} mol bs 24987 units box remap yes rotate 0 0 0 1
create_atoms  1 single 5.5559036818887 ${y0} ${z0} mol bs 24987 units box remap yes rotate 0 0 0 1
create_atoms  1 single 5.5559036818887 15.874010519682 ${z0} mol bs 24987 units box remap yes rotate 0 0 0 1
create_atoms  1 single 5.5559036818887 15.874010519682 17 mol bs 24987 units box remap yes rotate 0 0 0 1
Created 30 atoms
  create_atoms CPU = 9.10759e-05 secs
variable      check1 equal ${check}               # Count the new total number of atoms
variable      check1 equal 1472               
# Check that the molecule has indeed been inserted (This check is no longer an issue).
if            "${check1} != ${check0}" then "create_bonds  single/bond 2 ${randatomi} $b" "next i"
create_bonds  single/bond 2 ${randatomi} $b
create_bonds  single/bond 2 1211 $b
create_bonds  single/bond 2 1211 1443
  2 = max # of 1-2 neighbors
  5 = max # of special neighbors
  special bonds CPU = 0.000197887 secs
next i
jump MDPBB.in loop    # End of the loop
variable      randni equal round(random(1,${ntwall},$s))  # Pick a random "top" wall atom
variable      randni equal round(random(1,1352,$s))  
variable      randni equal round(random(1,1352,234897))  
variable      randatomi equal ${randni}                   # This is to obtain an integer number for atom-id
variable      randatomi equal 11                   
variable      randzi equal z[${randatomi}]                # Determine the z coordinate of the chosen atom
variable      randzi equal z[11]                
# if the chosen atom is not a surface atom then restart the loop
if            "${randzi} < $(v_wthick - 0.7)" then "jump MDPBB.in loop"
jump MDPBB.in loop
variable      randni equal round(random(1,${ntwall},$s))  # Pick a random "top" wall atom
variable      randni equal round(random(1,1352,$s))  
variable      randni equal round(random(1,1352,234897))  
variable      randatomi equal ${randni}                   # This is to obtain an integer number for atom-id
variable      randatomi equal 258                   
variable      randzi equal z[${randatomi}]                # Determine the z coordinate of the chosen atom
variable      randzi equal z[258]                
# if the chosen atom is not a surface atom then restart the loop
if            "${randzi} < $(v_wthick - 0.7)" then "jump MDPBB.in loop"
jump MDPBB.in loop
variable      randni equal round(random(1,${ntwall},$s))  # Pick a random "top" wall atom
variable      randni equal round(random(1,1352,$s))  
variable      randni equal round(random(1,1352,234897))  
variable      randatomi equal ${randni}                   # This is to obtain an integer number for atom-id
variable      randatomi equal 442                   
variable      randzi equal z[${randatomi}]                # Determine the z coordinate of the chosen atom
variable      randzi equal z[442]                
# if the chosen atom is not a surface atom then restart the loop
if            "${randzi} < $(v_wthick - 0.7)" then "jump MDPBB.in loop"
jump MDPBB.in loop
variable      randni equal round(random(1,${ntwall},$s))  # Pick a random "top" wall atom
variable      randni equal round(random(1,1352,$s))  
variable      randni equal round(random(1,1352,234897))  
variable      randatomi equal ${randni}                   # This is to obtain an integer number for atom-id
variable      randatomi equal 1095                   
variable      randzi equal z[${randatomi}]                # Determine the z coordinate of the chosen atom
variable      randzi equal z[1095]                
# if the chosen atom is not a surface atom then restart the loop
if            "${randzi} < $(v_wthick - 0.7)" then "jump MDPBB.in loop"
set           atom ${randatomi} type 4                    # Set this grafted wall atom as a new type
set           atom 1095 type 4                    
  1 settings made for type
group         twg id ${randatomi}                         # Add this atom to a top-wall-grafted group
group         twg id 1095                         
5 atoms in group twg
variable      twgcount equal count(twg)
print         "twg contains ${twgcount}"
twg contains 5
print         "i = $(v_i)"                                # The index i should always be equal to the number of atom in twg
i = 5
variable      x0 equal x[${randatomi}]                    # Determine its x-coord
variable      x0 equal x[1095]                    
variable      y0 equal y[${randatomi}]                    # Determine its y-coord
variable      y0 equal y[1095]                    
variable      check0 equal ${check}                       # Count the number of atoms in the simulation
variable      check0 equal 1472                       
variable      b equal ${check}+1                          # The grafted bead id will be one higher after being inserted
variable      b equal 1472+1                          
if            "${twgcount} != $(v_i)" then "jump MDPBB.in loop"
# Otherwise insert the chain directly above the chosen wall atom pointing perpendicular to the wall
create_atoms  1 single ${x0} ${y0} ${z0} mol bs 24987 units box remap yes rotate 0 0 0 1
create_atoms  1 single 0.7937005259841 ${y0} ${z0} mol bs 24987 units box remap yes rotate 0 0 0 1
create_atoms  1 single 0.7937005259841 12.6992084157456 ${z0} mol bs 24987 units box remap yes rotate 0 0 0 1
create_atoms  1 single 0.7937005259841 12.6992084157456 17 mol bs 24987 units box remap yes rotate 0 0 0 1
Created 30 atoms
  create_atoms CPU = 0.000153065 secs
variable      check1 equal ${check}               # Count the new total number of atoms
variable      check1 equal 1502               
# Check that the molecule has indeed been inserted (This check is no longer an issue).
if            "${check1} != ${check0}" then "create_bonds  single/bond 2 ${randatomi} $b" "next i"
create_bonds  single/bond 2 ${randatomi} $b
create_bonds  single/bond 2 1095 $b
create_bonds  single/bond 2 1095 1473
  2 = max # of 1-2 neighbors
  5 = max # of special neighbors
  special bonds CPU = 0.00022912 secs
next i
jump MDPBB.in loop    # End of the loop
variable      randni equal round(random(1,${ntwall},$s))  # Pick a random "top" wall atom
variable      randni equal round(random(1,1352,$s))  
variable      randni equal round(random(1,1352,234897))  
variable      randatomi equal ${randni}                   # This is to obtain an integer number for atom-id
variable      randatomi equal 960                   
variable      randzi equal z[${randatomi}]                # Determine the z coordinate of the chosen atom
variable      randzi equal z[960]                
# if the chosen atom is not a surface atom then restart the loop
if            "${randzi} < $(v_wthick - 0.7)" then "jump MDPBB.in loop"
set           atom ${randatomi} type 4                    # Set this grafted wall atom as a new type
set           atom 960 type 4                    
  1 settings made for type
group         twg id ${randatomi}                         # Add this atom to a top-wall-grafted group
group         twg id 960                         
6 atoms in group twg
variable      twgcount equal count(twg)
print         "twg contains ${twgcount}"
twg contains 6
print         "i = $(v_i)"                                # The index i should always be equal to the number of atom in twg
i = 6
variable      x0 equal x[${randatomi}]                    # Determine its x-coord
variable      x0 equal x[960]                    
variable      y0 equal y[${randatomi}]                    # Determine its y-coord
variable      y0 equal y[960]                    
variable      check0 equal ${check}                       # Count the number of atoms in the simulation
variable      check0 equal 1502                       
variable      b equal ${check}+1                          # The grafted bead id will be one higher after being inserted
variable      b equal 1502+1                          
if            "${twgcount} != $(v_i)" then "jump MDPBB.in loop"
# Otherwise insert the chain directly above the chosen wall atom pointing perpendicular to the wall
create_atoms  1 single ${x0} ${y0} ${z0} mol bs 24987 units box remap yes rotate 0 0 0 1
create_atoms  1 single 7.937005259841 ${y0} ${z0} mol bs 24987 units box remap yes rotate 0 0 0 1
create_atoms  1 single 7.937005259841 8.7307057858251 ${z0} mol bs 24987 units box remap yes rotate 0 0 0 1
create_atoms  1 single 7.937005259841 8.7307057858251 17 mol bs 24987 units box remap yes rotate 0 0 0 1
Created 30 atoms
  create_atoms CPU = 7.08103e-05 secs
variable      check1 equal ${check}               # Count the new total number of atoms
variable      check1 equal 1532               
# Check that the molecule has indeed been inserted (This check is no longer an issue).
if            "${check1} != ${check0}" then "create_bonds  single/bond 2 ${randatomi} $b" "next i"
create_bonds  single/bond 2 ${randatomi} $b
create_bonds  single/bond 2 960 $b
create_bonds  single/bond 2 960 1503
  2 = max # of 1-2 neighbors
  5 = max # of special neighbors
  special bonds CPU = 0.000215054 secs
next i
jump MDPBB.in loop    # End of the loop
variable      randni equal round(random(1,${ntwall},$s))  # Pick a random "top" wall atom
variable      randni equal round(random(1,1352,$s))  
variable      randni equal round(random(1,1352,234897))  
variable      randatomi equal ${randni}                   # This is to obtain an integer number for atom-id
variable      randatomi equal 931                   
variable      randzi equal z[${randatomi}]                # Determine the z coordinate of the chosen atom
variable      randzi equal z[931]                
# if the chosen atom is not a surface atom then restart the loop
if            "${randzi} < $(v_wthick - 0.7)" then "jump MDPBB.in loop"
set           atom ${randatomi} type 4                    # Set this grafted wall atom as a new type
set           atom 931 type 4                    
  1 settings made for type
group         twg id ${randatomi}                         # Add this atom to a top-wall-grafted group
group         twg id 931                         
7 atoms in group twg
variable      twgcount equal count(twg)
print         "twg contains ${twgcount}"
twg contains 7
print         "i = $(v_i)"                                # The index i should always be equal to the number of atom in twg
i = 7
variable      x0 equal x[${randatomi}]                    # Determine its x-coord
variable      x0 equal x[931]                    
variable      y0 equal y[${randatomi}]                    # Determine its y-coord
variable      y0 equal y[931]                    
variable      check0 equal ${check}                       # Count the number of atoms in the simulation
variable      check0 equal 1532                       
variable      b equal ${check}+1                          # The grafted bead id will be one higher after being inserted
variable      b equal 1532+1                          
if            "${twgcount} != $(v_i)" then "jump MDPBB.in loop"
# Otherwise insert the chain directly above the chosen wall atom pointing perpendicular to the wall
create_atoms  1 single ${x0} ${y0} ${z0} mol bs 24987 units box remap yes rotate 0 0 0 1
create_atoms  1 single 18.2551120976343 ${y0} ${z0} mol bs 24987 units box remap yes rotate 0 0 0 1
create_atoms  1 single 18.2551120976343 6.3496042078728 ${z0} mol bs 24987 units box remap yes rotate 0 0 0 1
create_atoms  1 single 18.2551120976343 6.3496042078728 17 mol bs 24987 units box remap yes rotate 0 0 0 1
Created 30 atoms
  create_atoms CPU = 0.000102997 secs
variable      check1 equal ${check}               # Count the new total number of atoms
variable      check1 equal 1562               
# Check that the molecule has indeed been inserted (This check is no longer an issue).
if            "${check1} != ${check0}" then "create_bonds  single/bond 2 ${randatomi} $b" "next i"
create_bonds  single/bond 2 ${randatomi} $b
create_bonds  single/bond 2 931 $b
create_bonds  single/bond 2 931 1533
  2 = max # of 1-2 neighbors
  5 = max # of special neighbors
  special bonds CPU = 0.000224113 secs
next i
jump MDPBB.in loop    # End of the loop
variable      randni equal round(random(1,${ntwall},$s))  # Pick a random "top" wall atom
variable      randni equal round(random(1,1352,$s))  
variable      randni equal round(random(1,1352,234897))  
variable      randatomi equal ${randni}                   # This is to obtain an integer number for atom-id
variable      randatomi equal 755                   
variable      randzi equal z[${randatomi}]                # Determine the z coordinate of the chosen atom
variable      randzi equal z[755]                
# if the chosen atom is not a surface atom then restart the loop
if            "${randzi} < $(v_wthick - 0.7)" then "jump MDPBB.in loop"
set           atom ${randatomi} type 4                    # Set this grafted wall atom as a new type
set           atom 755 type 4                    
  1 settings made for type
group         twg id ${randatomi}                         # Add this atom to a top-wall-grafted group
group         twg id 755                         
8 atoms in group twg
variable      twgcount equal count(twg)
print         "twg contains ${twgcount}"
twg contains 8
print         "i = $(v_i)"                                # The index i should always be equal to the number of atom in twg
i = 8
variable      x0 equal x[${randatomi}]                    # Determine its x-coord
variable      x0 equal x[755]                    
variable      y0 equal y[${randatomi}]                    # Determine its y-coord
variable      y0 equal y[755]                    
variable      check0 equal ${check}                       # Count the number of atoms in the simulation
variable      check0 equal 1562                       
variable      b equal ${check}+1                          # The grafted bead id will be one higher after being inserted
variable      b equal 1562+1                          
if            "${twgcount} != $(v_i)" then "jump MDPBB.in loop"
# Otherwise insert the chain directly above the chosen wall atom pointing perpendicular to the wall
create_atoms  1 single ${x0} ${y0} ${z0} mol bs 24987 units box remap yes rotate 0 0 0 1
create_atoms  1 single 10.3181068377933 ${y0} ${z0} mol bs 24987 units box remap yes rotate 0 0 0 1
create_atoms  1 single 10.3181068377933 1.5874010519682 ${z0} mol bs 24987 units box remap yes rotate 0 0 0 1
create_atoms  1 single 10.3181068377933 1.5874010519682 17 mol bs 24987 units box remap yes rotate 0 0 0 1
Created 30 atoms
  create_atoms CPU = 7.48634e-05 secs
variable      check1 equal ${check}               # Count the new total number of atoms
variable      check1 equal 1592               
# Check that the molecule has indeed been inserted (This check is no longer an issue).
if            "${check1} != ${check0}" then "create_bonds  single/bond 2 ${randatomi} $b" "next i"
create_bonds  single/bond 2 ${randatomi} $b
create_bonds  single/bond 2 755 $b
create_bonds  single/bond 2 755 1563
  2 = max # of 1-2 neighbors
  5 = max # of special neighbors
  special bonds CPU = 0.000233889 secs
next i
jump MDPBB.in loop    # End of the loop
variable      randni equal round(random(1,${ntwall},$s))  # Pick a random "top" wall atom
variable      randni equal round(random(1,1352,$s))  
variable      randni equal round(random(1,1352,234897))  
variable      randatomi equal ${randni}                   # This is to obtain an integer number for atom-id
variable      randatomi equal 1053                   
variable      randzi equal z[${randatomi}]                # Determine the z coordinate of the chosen atom
variable      randzi equal z[1053]                
# if the chosen atom is not a surface atom then restart the loop
if            "${randzi} < $(v_wthick - 0.7)" then "jump MDPBB.in loop"
jump MDPBB.in loop
variable      randni equal round(random(1,${ntwall},$s))  # Pick a random "top" wall atom
variable      randni equal round(random(1,1352,$s))  
variable      randni equal round(random(1,1352,234897))  
variable      randatomi equal ${randni}                   # This is to obtain an integer number for atom-id
variable      randatomi equal 832                   
variable      randzi equal z[${randatomi}]                # Determine the z coordinate of the chosen atom
variable      randzi equal z[832]                
# if the chosen atom is not a surface atom then restart the loop
if            "${randzi} < $(v_wthick - 0.7)" then "jump MDPBB.in loop"
set           atom ${randatomi} type 4                    # Set this grafted wall atom as a new type
set           atom 832 type 4                    
  1 settings made for type
group         twg id ${randatomi}                         # Add this atom to a top-wall-grafted group
group         twg id 832                         
9 atoms in group twg
variable      twgcount equal count(twg)
print         "twg contains ${twgcount}"
twg contains 9
print         "i = $(v_i)"                                # The index i should always be equal to the number of atom in twg
i = 9
variable      x0 equal x[${randatomi}]                    # Determine its x-coord
variable      x0 equal x[832]                    
variable      y0 equal y[${randatomi}]                    # Determine its y-coord
variable      y0 equal y[832]                    
variable      check0 equal ${check}                       # Count the number of atoms in the simulation
variable      check0 equal 1592                       
variable      b equal ${check}+1                          # The grafted bead id will be one higher after being inserted
variable      b equal 1592+1                          
if            "${twgcount} != $(v_i)" then "jump MDPBB.in loop"
# Otherwise insert the chain directly above the chosen wall atom pointing perpendicular to the wall
create_atoms  1 single ${x0} ${y0} ${z0} mol bs 24987 units box remap yes rotate 0 0 0 1
create_atoms  1 single 19.0488126236184 ${y0} ${z0} mol bs 24987 units box remap yes rotate 0 0 0 1
create_atoms  1 single 19.0488126236184 3.9685026299205 ${z0} mol bs 24987 units box remap yes rotate 0 0 0 1
create_atoms  1 single 19.0488126236184 3.9685026299205 17 mol bs 24987 units box remap yes rotate 0 0 0 1
Created 30 atoms
  create_atoms CPU = 7.60555e-05 secs
variable      check1 equal ${check}               # Count the new total number of atoms
variable      check1 equal 1622               
# Check that the molecule has indeed been inserted (This check is no longer an issue).
if            "${check1} != ${check0}" then "create_bonds  single/bond 2 ${randatomi} $b" "next i"
create_bonds  single/bond 2 ${randatomi} $b
create_bonds  single/bond 2 832 $b
create_bonds  single/bond 2 832 1593
  2 = max # of 1-2 neighbors
  5 = max # of special neighbors
  special bonds CPU = 0.000230074 secs
next i
jump MDPBB.in loop    # End of the loop
variable      randni equal round(random(1,${ntwall},$s))  # Pick a random "top" wall atom
variable      randni equal round(random(1,1352,$s))  
variable      randni equal round(random(1,1352,234897))  
variable      randatomi equal ${randni}                   # This is to obtain an integer number for atom-id
variable      randatomi equal 838                   
variable      randzi equal z[${randatomi}]                # Determine the z coordinate of the chosen atom
variable      randzi equal z[838]                
# if the chosen atom is not a surface atom then restart the loop
if            "${randzi} < $(v_wthick - 0.7)" then "jump MDPBB.in loop"
jump MDPBB.in loop
variable      randni equal round(random(1,${ntwall},$s))  # Pick a random "top" wall atom
variable      randni equal round(random(1,1352,$s))  
variable      randni equal round(random(1,1352,234897))  
variable      randatomi equal ${randni}                   # This is to obtain an integer number for atom-id
variable      randatomi equal 163                   
variable      randzi equal z[${randatomi}]                # Determine the z coordinate of the chosen atom
variable      randzi equal z[163]                
# if the chosen atom is not a surface atom then restart the loop
if            "${randzi} < $(v_wthick - 0.7)" then "jump MDPBB.in loop"
jump MDPBB.in loop
variable      randni equal round(random(1,${ntwall},$s))  # Pick a random "top" wall atom
variable      randni equal round(random(1,1352,$s))  
variable      randni equal round(random(1,1352,234897))  
variable      randatomi equal ${randni}                   # This is to obtain an integer number for atom-id
variable      randatomi equal 1178                   
variable      randzi equal z[${randatomi}]                # Determine the z coordinate of the chosen atom
variable      randzi equal z[1178]                
# if the chosen atom is not a surface atom then restart the loop
if            "${randzi} < $(v_wthick - 0.7)" then "jump MDPBB.in loop"
jump MDPBB.in loop
variable      randni equal round(random(1,${ntwall},$s))  # Pick a random "top" wall atom
variable      randni equal round(random(1,1352,$s))  
variable      randni equal round(random(1,1352,234897))  
variable      randatomi equal ${randni}                   # This is to obtain an integer number for atom-id
variable      randatomi equal 814                   
variable      randzi equal z[${randatomi}]                # Determine the z coordinate of the chosen atom
variable      randzi equal z[814]                
# if the chosen atom is not a surface atom then restart the loop
if            "${randzi} < $(v_wthick - 0.7)" then "jump MDPBB.in loop"
jump MDPBB.in loop
variable      randni equal round(random(1,${ntwall},$s))  # Pick a random "top" wall atom
variable      randni equal round(random(1,1352,$s))  
variable      randni equal round(random(1,1352,234897))  
variable      randatomi equal ${randni}                   # This is to obtain an integer number for atom-id
variable      randatomi equal 1242                   
variable      randzi equal z[${randatomi}]                # Determine the z coordinate of the chosen atom
variable      randzi equal z[1242]                
# if the chosen atom is not a surface atom then restart the loop
if            "${randzi} < $(v_wthick - 0.7)" then "jump MDPBB.in loop"
jump MDPBB.in loop
variable      randni equal round(random(1,${ntwall},$s))  # Pick a random "top" wall atom
variable      randni equal round(random(1,1352,$s))  
variable      randni equal round(random(1,1352,234897))  
variable      randatomi equal ${randni}                   # This is to obtain an integer number for atom-id
variable      randatomi equal 942                   
variable      randzi equal z[${randatomi}]                # Determine the z coordinate of the chosen atom
variable      randzi equal z[942]                
# if the chosen atom is not a surface atom then restart the loop
if            "${randzi} < $(v_wthick - 0.7)" then "jump MDPBB.in loop"
jump MDPBB.in loop
variable      randni equal round(random(1,${ntwall},$s))  # Pick a random "top" wall atom
variable      randni equal round(random(1,1352,$s))  
variable      randni equal round(random(1,1352,234897))  
variable      randatomi equal ${randni}                   # This is to obtain an integer number for atom-id
variable      randatomi equal 1214                   
variable      randzi equal z[${randatomi}]                # Determine the z coordinate of the chosen atom
variable      randzi equal z[1214]                
# if the chosen atom is not a surface atom then restart the loop
if            "${randzi} < $(v_wthick - 0.7)" then "jump MDPBB.in loop"
jump MDPBB.in loop
variable      randni equal round(random(1,${ntwall},$s))  # Pick a random "top" wall atom
variable      randni equal round(random(1,1352,$s))  
variable      randni equal round(random(1,1352,234897))  
variable      randatomi equal ${randni}                   # This is to obtain an integer number for atom-id
variable      randatomi equal 796                   
variable      randzi equal z[${randatomi}]                # Determine the z coordinate of the chosen atom
variable      randzi equal z[796]                
# if the chosen atom is not a surface atom then restart the loop
if            "${randzi} < $(v_wthick - 0.7)" then "jump MDPBB.in loop"
set           atom ${randatomi} type 4                    # Set this grafted wall atom as a new type
set           atom 796 type 4                    
  1 settings made for type
group         twg id ${randatomi}                         # Add this atom to a top-wall-grafted group
group         twg id 796                         
10 atoms in group twg
variable      twgcount equal count(twg)
print         "twg contains ${twgcount}"
twg contains 10
print         "i = $(v_i)"                                # The index i should always be equal to the number of atom in twg
i = 10
variable      x0 equal x[${randatomi}]                    # Determine its x-coord
variable      x0 equal x[796]                    
variable      y0 equal y[${randatomi}]                    # Determine its y-coord
variable      y0 equal y[796]                    
variable      check0 equal ${check}                       # Count the number of atoms in the simulation
variable      check0 equal 1622                       
variable      b equal ${check}+1                          # The grafted bead id will be one higher after being inserted
variable      b equal 1622+1                          
if            "${twgcount} != $(v_i)" then "jump MDPBB.in loop"
# Otherwise insert the chain directly above the chosen wall atom pointing perpendicular to the wall
create_atoms  1 single ${x0} ${y0} ${z0} mol bs 24987 units box remap yes rotate 0 0 0 1
create_atoms  1 single 4.7622031559046 ${y0} ${z0} mol bs 24987 units box remap yes rotate 0 0 0 1
create_atoms  1 single 4.7622031559046 3.9685026299205 ${z0} mol bs 24987 units box remap yes rotate 0 0 0 1
create_atoms  1 single 4.7622031559046 3.9685026299205 17 mol bs 24987 units box remap yes rotate 0 0 0 1
Created 30 atoms
  create_atoms CPU = 9.70364e-05 secs
variable      check1 equal ${check}               # Count the new total number of atoms
variable      check1 equal 1652               
# Check that the molecule has indeed been inserted (This check is no longer an issue).
if            "${check1} != ${check0}" then "create_bonds  single/bond 2 ${randatomi} $b" "next i"
create_bonds  single/bond 2 ${randatomi} $b
create_bonds  single/bond 2 796 $b
create_bonds  single/bond 2 796 1623
  2 = max # of 1-2 neighbors
  5 = max # of special neighbors
  special bonds CPU = 0.000307083 secs
next i
jump MDPBB.in loop    # End of the loop
variable      randni equal round(random(1,${ntwall},$s))  # Pick a random "top" wall atom
variable      randni equal round(random(1,1352,$s))  
variable      randni equal round(random(1,1352,234897))  
variable      randatomi equal ${randni}                   # This is to obtain an integer number for atom-id
variable      randatomi equal 1150                   
variable      randzi equal z[${randatomi}]                # Determine the z coordinate of the chosen atom
variable      randzi equal z[1150]                
# if the chosen atom is not a surface atom then restart the loop
if            "${randzi} < $(v_wthick - 0.7)" then "jump MDPBB.in loop"
jump MDPBB.in loop
variable      randni equal round(random(1,${ntwall},$s))  # Pick a random "top" wall atom
variable      randni equal round(random(1,1352,$s))  
variable      randni equal round(random(1,1352,234897))  
variable      randatomi equal ${randni}                   # This is to obtain an integer number for atom-id
variable      randatomi equal 1133                   
variable      randzi equal z[${randatomi}]                # Determine the z coordinate of the chosen atom
variable      randzi equal z[1133]                
# if the chosen atom is not a surface atom then restart the loop
if            "${randzi} < $(v_wthick - 0.7)" then "jump MDPBB.in loop"
jump MDPBB.in loop
variable      randni equal round(random(1,${ntwall},$s))  # Pick a random "top" wall atom
variable      randni equal round(random(1,1352,$s))  
variable      randni equal round(random(1,1352,234897))  
variable      randatomi equal ${randni}                   # This is to obtain an integer number for atom-id
variable      randatomi equal 563                   
variable      randzi equal z[${randatomi}]                # Determine the z coordinate of the chosen atom
variable      randzi equal z[563]                
# if the chosen atom is not a surface atom then restart the loop
if            "${randzi} < $(v_wthick - 0.7)" then "jump MDPBB.in loop"
jump MDPBB.in loop
variable      randni equal round(random(1,${ntwall},$s))  # Pick a random "top" wall atom
variable      randni equal round(random(1,1352,$s))  
variable      randni equal round(random(1,1352,234897))  
variable      randatomi equal ${randni}                   # This is to obtain an integer number for atom-id
variable      randatomi equal 1350                   
variable      randzi equal z[${randatomi}]                # Determine the z coordinate of the chosen atom
variable      randzi equal z[1350]                
# if the chosen atom is not a surface atom then restart the loop
if            "${randzi} < $(v_wthick - 0.7)" then "jump MDPBB.in loop"
jump MDPBB.in loop
variable      randni equal round(random(1,${ntwall},$s))  # Pick a random "top" wall atom
variable      randni equal round(random(1,1352,$s))  
variable      randni equal round(random(1,1352,234897))  
variable      randatomi equal ${randni}                   # This is to obtain an integer number for atom-id
variable      randatomi equal 1318                   
variable      randzi equal z[${randatomi}]                # Determine the z coordinate of the chosen atom
variable      randzi equal z[1318]                
# if the chosen atom is not a surface atom then restart the loop
if            "${randzi} < $(v_wthick - 0.7)" then "jump MDPBB.in loop"
jump MDPBB.in loop
variable      randni equal round(random(1,${ntwall},$s))  # Pick a random "top" wall atom
variable      randni equal round(random(1,1352,$s))  
variable      randni equal round(random(1,1352,234897))  
variable      randatomi equal ${randni}                   # This is to obtain an integer number for atom-id
variable      randatomi equal 979                   
variable      randzi equal z[${randatomi}]                # Determine the z coordinate of the chosen atom
variable      randzi equal z[979]                
# if the chosen atom is not a surface atom then restart the loop
if            "${randzi} < $(v_wthick - 0.7)" then "jump MDPBB.in loop"
set           atom ${randatomi} type 4                    # Set this grafted wall atom as a new type
set           atom 979 type 4                    
  1 settings made for type
group         twg id ${randatomi}                         # Add this atom to a top-wall-grafted group
group         twg id 979                         
10 atoms in group twg
variable      twgcount equal count(twg)
print         "twg contains ${twgcount}"
twg contains 10
print         "i = $(v_i)"                                # The index i should always be equal to the number of atom in twg
i = 11
variable      x0 equal x[${randatomi}]                    # Determine its x-coord
variable      x0 equal x[979]                    
variable      y0 equal y[${randatomi}]                    # Determine its y-coord
variable      y0 equal y[979]                    
variable      check0 equal ${check}                       # Count the number of atoms in the simulation
variable      check0 equal 1652                       
variable      b equal ${check}+1                          # The grafted bead id will be one higher after being inserted
variable      b equal 1652+1                          
if            "${twgcount} != $(v_i)" then "jump MDPBB.in loop"
jump MDPBB.in loop
variable      randni equal round(random(1,${ntwall},$s))  # Pick a random "top" wall atom
variable      randni equal round(random(1,1352,$s))  
variable      randni equal round(random(1,1352,234897))  
variable      randatomi equal ${randni}                   # This is to obtain an integer number for atom-id
variable      randatomi equal 1270                   
variable      randzi equal z[${randatomi}]                # Determine the z coordinate of the chosen atom
variable      randzi equal z[1270]                
# if the chosen atom is not a surface atom then restart the loop
if            "${randzi} < $(v_wthick - 0.7)" then "jump MDPBB.in loop"
jump MDPBB.in loop
variable      randni equal round(random(1,${ntwall},$s))  # Pick a random "top" wall atom
variable      randni equal round(random(1,1352,$s))  
variable      randni equal round(random(1,1352,234897))  
variable      randatomi equal ${randni}                   # This is to obtain an integer number for atom-id
variable      randatomi equal 320                   
variable      randzi equal z[${randatomi}]                # Determine the z coordinate of the chosen atom
variable      randzi equal z[320]                
# if the chosen atom is not a surface atom then restart the loop
if            "${randzi} < $(v_wthick - 0.7)" then "jump MDPBB.in loop"
jump MDPBB.in loop
variable      randni equal round(random(1,${ntwall},$s))  # Pick a random "top" wall atom
variable      randni equal round(random(1,1352,$s))  
variable      randni equal round(random(1,1352,234897))  
variable      randatomi equal ${randni}                   # This is to obtain an integer number for atom-id
variable      randatomi equal 1261                   
variable      randzi equal z[${randatomi}]                # Determine the z coordinate of the chosen atom
variable      randzi equal z[1261]                
# if the chosen atom is not a surface atom then restart the loop
if            "${randzi} < $(v_wthick - 0.7)" then "jump MDPBB.in loop"
jump MDPBB.in loop
variable      randni equal round(random(1,${ntwall},$s))  # Pick a random "top" wall atom
variable      randni equal round(random(1,1352,$s))  
variable      randni equal round(random(1,1352,234897))  
variable      randatomi equal ${randni}                   # This is to obtain an integer number for atom-id
variable      randatomi equal 177                   
variable      randzi equal z[${randatomi}]                # Determine the z coordinate of the chosen atom
variable      randzi equal z[177]                
# if the chosen atom is not a surface atom then restart the loop
if            "${randzi} < $(v_wthick - 0.7)" then "jump MDPBB.in loop"
jump MDPBB.in loop
variable      randni equal round(random(1,${ntwall},$s))  # Pick a random "top" wall atom
variable      randni equal round(random(1,1352,$s))  
variable      randni equal round(random(1,1352,234897))  
variable      randatomi equal ${randni}                   # This is to obtain an integer number for atom-id
variable      randatomi equal 1150                   
variable      randzi equal z[${randatomi}]                # Determine the z coordinate of the chosen atom
variable      randzi equal z[1150]                
# if the chosen atom is not a surface atom then restart the loop
if            "${randzi} < $(v_wthick - 0.7)" then "jump MDPBB.in loop"
jump MDPBB.in loop
variable      randni equal round(random(1,${ntwall},$s))  # Pick a random "top" wall atom
variable      randni equal round(random(1,1352,$s))  
variable      randni equal round(random(1,1352,234897))  
variable      randatomi equal ${randni}                   # This is to obtain an integer number for atom-id
variable      randatomi equal 1263                   
variable      randzi equal z[${randatomi}]                # Determine the z coordinate of the chosen atom
variable      randzi equal z[1263]                
# if the chosen atom is not a surface atom then restart the loop
if            "${randzi} < $(v_wthick - 0.7)" then "jump MDPBB.in loop"
set           atom ${randatomi} type 4                    # Set this grafted wall atom as a new type
set           atom 1263 type 4                    
  1 settings made for type
group         twg id ${randatomi}                         # Add this atom to a top-wall-grafted group
group         twg id 1263                         
11 atoms in group twg
variable      twgcount equal count(twg)
print         "twg contains ${twgcount}"
twg contains 11
print         "i = $(v_i)"                                # The index i should always be equal to the number of atom in twg
i = 11
variable      x0 equal x[${randatomi}]                    # Determine its x-coord
variable      x0 equal x[1263]                    
variable      y0 equal y[${randatomi}]                    # Determine its y-coord
variable      y0 equal y[1263]                    
variable      check0 equal ${check}                       # Count the number of atoms in the simulation
variable      check0 equal 1652                       
variable      b equal ${check}+1                          # The grafted bead id will be one higher after being inserted
variable      b equal 1652+1                          
if            "${twgcount} != $(v_i)" then "jump MDPBB.in loop"
# Otherwise insert the chain directly above the chosen wall atom pointing perpendicular to the wall
create_atoms  1 single ${x0} ${y0} ${z0} mol bs 24987 units box remap yes rotate 0 0 0 1
create_atoms  1 single 5.5559036818887 ${y0} ${z0} mol bs 24987 units box remap yes rotate 0 0 0 1
create_atoms  1 single 5.5559036818887 17.4614115716502 ${z0} mol bs 24987 units box remap yes rotate 0 0 0 1
create_atoms  1 single 5.5559036818887 17.4614115716502 17 mol bs 24987 units box remap yes rotate 0 0 0 1
Created 30 atoms
  create_atoms CPU = 8.32081e-05 secs
variable      check1 equal ${check}               # Count the new total number of atoms
variable      check1 equal 1682               
# Check that the molecule has indeed been inserted (This check is no longer an issue).
if            "${check1} != ${check0}" then "create_bonds  single/bond 2 ${randatomi} $b" "next i"
create_bonds  single/bond 2 ${randatomi} $b
create_bonds  single/bond 2 1263 $b
create_bonds  single/bond 2 1263 1653
  2 = max # of 1-2 neighbors
  5 = max # of special neighbors
  special bonds CPU = 0.000283003 secs
next i
jump MDPBB.in loop    # End of the loop
variable      randni equal round(random(1,${ntwall},$s))  # Pick a random "top" wall atom
variable      randni equal round(random(1,1352,$s))  
variable      randni equal round(random(1,1352,234897))  
variable      randatomi equal ${randni}                   # This is to obtain an integer number for atom-id
variable      randatomi equal 463                   
variable      randzi equal z[${randatomi}]                # Determine the z coordinate of the chosen atom
variable      randzi equal z[463]                
# if the chosen atom is not a surface atom then restart the loop
if            "${randzi} < $(v_wthick - 0.7)" then "jump MDPBB.in loop"
jump MDPBB.in loop
variable      randni equal round(random(1,${ntwall},$s))  # Pick a random "top" wall atom
variable      randni equal round(random(1,1352,$s))  
variable      randni equal round(random(1,1352,234897))  
variable      randatomi equal ${randni}                   # This is to obtain an integer number for atom-id
variable      randatomi equal 352                   
variable      randzi equal z[${randatomi}]                # Determine the z coordinate of the chosen atom
variable      randzi equal z[352]                
# if the chosen atom is not a surface atom then restart the loop
if            "${randzi} < $(v_wthick - 0.7)" then "jump MDPBB.in loop"
jump MDPBB.in loop
variable      randni equal round(random(1,${ntwall},$s))  # Pick a random "top" wall atom
variable      randni equal round(random(1,1352,$s))  
variable      randni equal round(random(1,1352,234897))  
variable      randatomi equal ${randni}                   # This is to obtain an integer number for atom-id
variable      randatomi equal 898                   
variable      randzi equal z[${randatomi}]                # Determine the z coordinate of the chosen atom
variable      randzi equal z[898]                
# if the chosen atom is not a surface atom then restart the loop
if            "${randzi} < $(v_wthick - 0.7)" then "jump MDPBB.in loop"
jump MDPBB.in loop
variable      randni equal round(random(1,${ntwall},$s))  # Pick a random "top" wall atom
variable      randni equal round(random(1,1352,$s))  
variable      randni equal round(random(1,1352,234897))  
variable      randatomi equal ${randni}                   # This is to obtain an integer number for atom-id
variable      randatomi equal 631                   
variable      randzi equal z[${randatomi}]                # Determine the z coordinate of the chosen atom
variable      randzi equal z[631]                
# if the chosen atom is not a surface atom then restart the loop
if            "${randzi} < $(v_wthick - 0.7)" then "jump MDPBB.in loop"
jump MDPBB.in loop
variable      randni equal round(random(1,${ntwall},$s))  # Pick a random "top" wall atom
variable      randni equal round(random(1,1352,$s))  
variable      randni equal round(random(1,1352,234897))  
variable      randatomi equal ${randni}                   # This is to obtain an integer number for atom-id
variable      randatomi equal 196                   
variable      randzi equal z[${randatomi}]                # Determine the z coordinate of the chosen atom
variable      randzi equal z[196]                
# if the chosen atom is not a surface atom then restart the loop
if            "${randzi} < $(v_wthick - 0.7)" then "jump MDPBB.in loop"
jump MDPBB.in loop
variable      randni equal round(random(1,${ntwall},$s))  # Pick a random "top" wall atom
variable      randni equal round(random(1,1352,$s))  
variable      randni equal round(random(1,1352,234897))  
variable      randatomi equal ${randni}                   # This is to obtain an integer number for atom-id
variable      randatomi equal 1245                   
variable      randzi equal z[${randatomi}]                # Determine the z coordinate of the chosen atom
variable      randzi equal z[1245]                
# if the chosen atom is not a surface atom then restart the loop
if            "${randzi} < $(v_wthick - 0.7)" then "jump MDPBB.in loop"
jump MDPBB.in loop
variable      randni equal round(random(1,${ntwall},$s))  # Pick a random "top" wall atom
variable      randni equal round(random(1,1352,$s))  
variable      randni equal round(random(1,1352,234897))  
variable      randatomi equal ${randni}                   # This is to obtain an integer number for atom-id
variable      randatomi equal 1293                   
variable      randzi equal z[${randatomi}]                # Determine the z coordinate of the chosen atom
variable      randzi equal z[1293]                
# if the chosen atom is not a surface atom then restart the loop
if            "${randzi} < $(v_wthick - 0.7)" then "jump MDPBB.in loop"
jump MDPBB.in loop
variable      randni equal round(random(1,${ntwall},$s))  # Pick a random "top" wall atom
variable      randni equal round(random(1,1352,$s))  
variable      randni equal round(random(1,1352,234897))  
variable      randatomi equal ${randni}                   # This is to obtain an integer number for atom-id
variable      randatomi equal 1223                   
variable      randzi equal z[${randatomi}]                # Determine the z coordinate of the chosen atom
variable      randzi equal z[1223]                
# if the chosen atom is not a surface atom then restart the loop
if            "${randzi} < $(v_wthick - 0.7)" then "jump MDPBB.in loop"
set           atom ${randatomi} type 4                    # Set this grafted wall atom as a new type
set           atom 1223 type 4                    
  1 settings made for type
group         twg id ${randatomi}                         # Add this atom to a top-wall-grafted group
group         twg id 1223                         
12 atoms in group twg
variable      twgcount equal count(twg)
print         "twg contains ${twgcount}"
twg contains 12
print         "i = $(v_i)"                                # The index i should always be equal to the number of atom in twg
i = 12
variable      x0 equal x[${randatomi}]                    # Determine its x-coord
variable      x0 equal x[1223]                    
variable      y0 equal y[${randatomi}]                    # Determine its y-coord
variable      y0 equal y[1223]                    
variable      check0 equal ${check}                       # Count the number of atoms in the simulation
variable      check0 equal 1682                       
variable      b equal ${check}+1                          # The grafted bead id will be one higher after being inserted
variable      b equal 1682+1                          
if            "${twgcount} != $(v_i)" then "jump MDPBB.in loop"
# Otherwise insert the chain directly above the chosen wall atom pointing perpendicular to the wall
create_atoms  1 single ${x0} ${y0} ${z0} mol bs 24987 units box remap yes rotate 0 0 0 1
create_atoms  1 single 10.3181068377933 ${y0} ${z0} mol bs 24987 units box remap yes rotate 0 0 0 1
create_atoms  1 single 10.3181068377933 15.874010519682 ${z0} mol bs 24987 units box remap yes rotate 0 0 0 1
create_atoms  1 single 10.3181068377933 15.874010519682 17 mol bs 24987 units box remap yes rotate 0 0 0 1
Created 30 atoms
  create_atoms CPU = 0.000108957 secs
variable      check1 equal ${check}               # Count the new total number of atoms
variable      check1 equal 1712               
# Check that the molecule has indeed been inserted (This check is no longer an issue).
if            "${check1} != ${check0}" then "create_bonds  single/bond 2 ${randatomi} $b" "next i"
create_bonds  single/bond 2 ${randatomi} $b
create_bonds  single/bond 2 1223 $b
create_bonds  single/bond 2 1223 1683
  2 = max # of 1-2 neighbors
  5 = max # of special neighbors
  special bonds CPU = 0.000251055 secs
next i
jump MDPBB.in loop    # End of the loop
variable      randni equal round(random(1,${ntwall},$s))  # Pick a random "top" wall atom
variable      randni equal round(random(1,1352,$s))  
variable      randni equal round(random(1,1352,234897))  
variable      randatomi equal ${randni}                   # This is to obtain an integer number for atom-id
variable      randatomi equal 1078                   
variable      randzi equal z[${randatomi}]                # Determine the z coordinate of the chosen atom
variable      randzi equal z[1078]                
# if the chosen atom is not a surface atom then restart the loop
if            "${randzi} < $(v_wthick - 0.7)" then "jump MDPBB.in loop"
jump MDPBB.in loop
variable      randni equal round(random(1,${ntwall},$s))  # Pick a random "top" wall atom
variable      randni equal round(random(1,1352,$s))  
variable      randni equal round(random(1,1352,234897))  
variable      randatomi equal ${randni}                   # This is to obtain an integer number for atom-id
variable      randatomi equal 594                   
variable      randzi equal z[${randatomi}]                # Determine the z coordinate of the chosen atom
variable      randzi equal z[594]                
# if the chosen atom is not a surface atom then restart the loop
if            "${randzi} < $(v_wthick - 0.7)" then "jump MDPBB.in loop"
jump MDPBB.in loop
variable      randni equal round(random(1,${ntwall},$s))  # Pick a random "top" wall atom
variable      randni equal round(random(1,1352,$s))  
variable      randni equal round(random(1,1352,234897))  
variable      randatomi equal ${randni}                   # This is to obtain an integer number for atom-id
variable      randatomi equal 502                   
variable      randzi equal z[${randatomi}]                # Determine the z coordinate of the chosen atom
variable      randzi equal z[502]                
# if the chosen atom is not a surface atom then restart the loop
if            "${randzi} < $(v_wthick - 0.7)" then "jump MDPBB.in loop"
jump MDPBB.in loop
variable      randni equal round(random(1,${ntwall},$s))  # Pick a random "top" wall atom
variable      randni equal round(random(1,1352,$s))  
variable      randni equal round(random(1,1352,234897))  
variable      randatomi equal ${randni}                   # This is to obtain an integer number for atom-id
variable      randatomi equal 948                   
variable      randzi equal z[${randatomi}]                # Determine the z coordinate of the chosen atom
variable      randzi equal z[948]                
# if the chosen atom is not a surface atom then restart the loop
if            "${randzi} < $(v_wthick - 0.7)" then "jump MDPBB.in loop"
set           atom ${randatomi} type 4                    # Set this grafted wall atom as a new type
set           atom 948 type 4                    
  1 settings made for type
group         twg id ${randatomi}                         # Add this atom to a top-wall-grafted group
group         twg id 948                         
13 atoms in group twg
variable      twgcount equal count(twg)
print         "twg contains ${twgcount}"
twg contains 13
print         "i = $(v_i)"                                # The index i should always be equal to the number of atom in twg
i = 13
variable      x0 equal x[${randatomi}]                    # Determine its x-coord
variable      x0 equal x[948]                    
variable      y0 equal y[${randatomi}]                    # Determine its y-coord
variable      y0 equal y[948]                    
variable      check0 equal ${check}                       # Count the number of atoms in the simulation
variable      check0 equal 1712                       
variable      b equal ${check}+1                          # The grafted bead id will be one higher after being inserted
variable      b equal 1712+1                          
if            "${twgcount} != $(v_i)" then "jump MDPBB.in loop"
# Otherwise insert the chain directly above the chosen wall atom pointing perpendicular to the wall
create_atoms  1 single ${x0} ${y0} ${z0} mol bs 24987 units box remap yes rotate 0 0 0 1
create_atoms  1 single 3.1748021039364 ${y0} ${z0} mol bs 24987 units box remap yes rotate 0 0 0 1
create_atoms  1 single 3.1748021039364 8.7307057858251 ${z0} mol bs 24987 units box remap yes rotate 0 0 0 1
create_atoms  1 single 3.1748021039364 8.7307057858251 17 mol bs 24987 units box remap yes rotate 0 0 0 1
Created 30 atoms
  create_atoms CPU = 8.01086e-05 secs
variable      check1 equal ${check}               # Count the new total number of atoms
variable      check1 equal 1742               
# Check that the molecule has indeed been inserted (This check is no longer an issue).
if            "${check1} != ${check0}" then "create_bonds  single/bond 2 ${randatomi} $b" "next i"
create_bonds  single/bond 2 ${randatomi} $b
create_bonds  single/bond 2 948 $b
create_bonds  single/bond 2 948 1713
  2 = max # of 1-2 neighbors
  5 = max # of special neighbors
  special bonds CPU = 0.000305891 secs
next i
jump MDPBB.in loop    # End of the loop
variable      randni equal round(random(1,${ntwall},$s))  # Pick a random "top" wall atom
variable      randni equal round(random(1,1352,$s))  
variable      randni equal round(random(1,1352,234897))  
variable      randatomi equal ${randni}                   # This is to obtain an integer number for atom-id
variable      randatomi equal 127                   
variable      randzi equal z[${randatomi}]                # Determine the z coordinate of the chosen atom
variable      randzi equal z[127]                
# if the chosen atom is not a surface atom then restart the loop
if            "${randzi} < $(v_wthick - 0.7)" then "jump MDPBB.in loop"
jump MDPBB.in loop
variable      randni equal round(random(1,${ntwall},$s))  # Pick a random "top" wall atom
variable      randni equal round(random(1,1352,$s))  
variable      randni equal round(random(1,1352,234897))  
variable      randatomi equal ${randni}                   # This is to obtain an integer number for atom-id
variable      randatomi equal 512                   
variable      randzi equal z[${randatomi}]                # Determine the z coordinate of the chosen atom
variable      randzi equal z[512]                
# if the chosen atom is not a surface atom then restart the loop
if            "${randzi} < $(v_wthick - 0.7)" then "jump MDPBB.in loop"
jump MDPBB.in loop
variable      randni equal round(random(1,${ntwall},$s))  # Pick a random "top" wall atom
variable      randni equal round(random(1,1352,$s))  
variable      randni equal round(random(1,1352,234897))  
variable      randatomi equal ${randni}                   # This is to obtain an integer number for atom-id
variable      randatomi equal 590                   
variable      randzi equal z[${randatomi}]                # Determine the z coordinate of the chosen atom
variable      randzi equal z[590]                
# if the chosen atom is not a surface atom then restart the loop
if            "${randzi} < $(v_wthick - 0.7)" then "jump MDPBB.in loop"
jump MDPBB.in loop
variable      randni equal round(random(1,${ntwall},$s))  # Pick a random "top" wall atom
variable      randni equal round(random(1,1352,$s))  
variable      randni equal round(random(1,1352,234897))  
variable      randatomi equal ${randni}                   # This is to obtain an integer number for atom-id
variable      randatomi equal 445                   
variable      randzi equal z[${randatomi}]                # Determine the z coordinate of the chosen atom
variable      randzi equal z[445]                
# if the chosen atom is not a surface atom then restart the loop
if            "${randzi} < $(v_wthick - 0.7)" then "jump MDPBB.in loop"
jump MDPBB.in loop
variable      randni equal round(random(1,${ntwall},$s))  # Pick a random "top" wall atom
variable      randni equal round(random(1,1352,$s))  
variable      randni equal round(random(1,1352,234897))  
variable      randatomi equal ${randni}                   # This is to obtain an integer number for atom-id
variable      randatomi equal 825                   
variable      randzi equal z[${randatomi}]                # Determine the z coordinate of the chosen atom
variable      randzi equal z[825]                
# if the chosen atom is not a surface atom then restart the loop
if            "${randzi} < $(v_wthick - 0.7)" then "jump MDPBB.in loop"
jump MDPBB.in loop
variable      randni equal round(random(1,${ntwall},$s))  # Pick a random "top" wall atom
variable      randni equal round(random(1,1352,$s))  
variable      randni equal round(random(1,1352,234897))  
variable      randatomi equal ${randni}                   # This is to obtain an integer number for atom-id
variable      randatomi equal 387                   
variable      randzi equal z[${randatomi}]                # Determine the z coordinate of the chosen atom
variable      randzi equal z[387]                
# if the chosen atom is not a surface atom then restart the loop
if            "${randzi} < $(v_wthick - 0.7)" then "jump MDPBB.in loop"
jump MDPBB.in loop
variable      randni equal round(random(1,${ntwall},$s))  # Pick a random "top" wall atom
variable      randni equal round(random(1,1352,$s))  
variable      randni equal round(random(1,1352,234897))  
variable      randatomi equal ${randni}                   # This is to obtain an integer number for atom-id
variable      randatomi equal 323                   
variable      randzi equal z[${randatomi}]                # Determine the z coordinate of the chosen atom
variable      randzi equal z[323]                
# if the chosen atom is not a surface atom then restart the loop
if            "${randzi} < $(v_wthick - 0.7)" then "jump MDPBB.in loop"
jump MDPBB.in loop
variable      randni equal round(random(1,${ntwall},$s))  # Pick a random "top" wall atom
variable      randni equal round(random(1,1352,$s))  
variable      randni equal round(random(1,1352,234897))  
variable      randatomi equal ${randni}                   # This is to obtain an integer number for atom-id
variable      randatomi equal 117                   
variable      randzi equal z[${randatomi}]                # Determine the z coordinate of the chosen atom
variable      randzi equal z[117]                
# if the chosen atom is not a surface atom then restart the loop
if            "${randzi} < $(v_wthick - 0.7)" then "jump MDPBB.in loop"
jump MDPBB.in loop
variable      randni equal round(random(1,${ntwall},$s))  # Pick a random "top" wall atom
variable      randni equal round(random(1,1352,$s))  
variable      randni equal round(random(1,1352,234897))  
variable      randatomi equal ${randni}                   # This is to obtain an integer number for atom-id
variable      randatomi equal 921                   
variable      randzi equal z[${randatomi}]                # Determine the z coordinate of the chosen atom
variable      randzi equal z[921]                
# if the chosen atom is not a surface atom then restart the loop
if            "${randzi} < $(v_wthick - 0.7)" then "jump MDPBB.in loop"
jump MDPBB.in loop
variable      randni equal round(random(1,${ntwall},$s))  # Pick a random "top" wall atom
variable      randni equal round(random(1,1352,$s))  
[...]
variable      randzj equal z[3010]
if            "${randzj} < $(v_wthick - 0.7)" then "jump MDPBB.in loopj"
jump MDPBB.in loopj
variable      randnj equal round(random(v_ntop0,$(v_ntop0 + v_nbwall0),$s))
variable      randnj equal round(random(v_ntop0,3604,$s))
variable      randnj equal round(random(v_ntop0,3604,234897))
variable      randatomj equal ${randnj}
variable      randatomj equal 3085
variable      randzj equal z[${randatomj}]
variable      randzj equal z[3085]
if            "${randzj} < $(v_wthick - 0.7)" then "jump MDPBB.in loopj"
jump MDPBB.in loopj
variable      randnj equal round(random(v_ntop0,$(v_ntop0 + v_nbwall0),$s))
variable      randnj equal round(random(v_ntop0,3604,$s))
variable      randnj equal round(random(v_ntop0,3604,234897))
variable      randatomj equal ${randnj}
variable      randatomj equal 3531
variable      randzj equal z[${randatomj}]
variable      randzj equal z[3531]
if            "${randzj} < $(v_wthick - 0.7)" then "jump MDPBB.in loopj"
set           atom ${randatomj} type 4
set           atom 3531 type 4
  1 settings made for type
group         bwg id ${randatomj}                         # Add this atom to a bot-wall-grafted group
group         bwg id 3531                         
25 atoms in group bwg
variable      bwgcount equal count(bwg)
print         "bwg contains ${bwgcount}"
bwg contains 25
print         "j = $(v_j)"
j = 25
variable      x0 equal x[${randatomj}]
variable      x0 equal x[3531]
variable      y0 equal y[${randatomj}]
variable      y0 equal y[3531]
variable      check0 equal ${check}
variable      check0 equal 4324
variable      b equal ${check}+1
variable      b equal 4324+1
if            "${bwgcount} != $(v_j)" then "jump MDPBB.in loopj"
create_atoms  1 single ${x0} ${y0} ${z0} mol bs 24987 units box remap yes rotate 0 0 0 1
create_atoms  1 single 11.9055078897615 ${y0} ${z0} mol bs 24987 units box remap yes rotate 0 0 0 1
create_atoms  1 single 11.9055078897615 17.4614115716502 ${z0} mol bs 24987 units box remap yes rotate 0 0 0 1
create_atoms  1 single 11.9055078897615 17.4614115716502 17 mol bs 24987 units box remap yes rotate 0 0 0 1
Created 30 atoms
  create_atoms CPU = 0.000181913 secs
variable      check1 equal ${check}
variable      check1 equal 4354
if            "${check1} != ${check0}" then "create_bonds  single/bond 2 ${randatomj} $b" "next j"
create_bonds  single/bond 2 ${randatomj} $b
create_bonds  single/bond 2 3531 $b
create_bonds  single/bond 2 3531 4325
  2 = max # of 1-2 neighbors
  5 = max # of special neighbors
  special bonds CPU = 0.00067997 secs
next j
jump MDPBB.in loopj
variable      randnj equal round(random(v_ntop0,$(v_ntop0 + v_nbwall0),$s))
variable      randnj equal round(random(v_ntop0,3604,$s))
variable      randnj equal round(random(v_ntop0,3604,234897))
variable      randatomj equal ${randnj}
variable      randatomj equal 3011
variable      randzj equal z[${randatomj}]
variable      randzj equal z[3011]
if            "${randzj} < $(v_wthick - 0.7)" then "jump MDPBB.in loopj"
set           atom ${randatomj} type 4
set           atom 3011 type 4
  1 settings made for type
group         bwg id ${randatomj}                         # Add this atom to a bot-wall-grafted group
group         bwg id 3011                         
26 atoms in group bwg
variable      bwgcount equal count(bwg)
print         "bwg contains ${bwgcount}"
bwg contains 26
print         "j = $(v_j)"
j = 26
variable      x0 equal x[${randatomj}]
variable      x0 equal x[3011]
variable      y0 equal y[${randatomj}]
variable      y0 equal y[3011]
variable      check0 equal ${check}
variable      check0 equal 4354
variable      b equal ${check}+1
variable      b equal 4354+1
if            "${bwgcount} != $(v_j)" then "jump MDPBB.in loopj"
create_atoms  1 single ${x0} ${y0} ${z0} mol bs 24987 units box remap yes rotate 0 0 0 1
create_atoms  1 single 11.9055078897615 ${y0} ${z0} mol bs 24987 units box remap yes rotate 0 0 0 1
create_atoms  1 single 11.9055078897615 1.5874010519682 ${z0} mol bs 24987 units box remap yes rotate 0 0 0 1
create_atoms  1 single 11.9055078897615 1.5874010519682 17 mol bs 24987 units box remap yes rotate 0 0 0 1
Created 30 atoms
  create_atoms CPU = 0.000174046 secs
variable      check1 equal ${check}
variable      check1 equal 4384
if            "${check1} != ${check0}" then "create_bonds  single/bond 2 ${randatomj} $b" "next j"
create_bonds  single/bond 2 ${randatomj} $b
create_bonds  single/bond 2 3011 $b
create_bonds  single/bond 2 3011 4355
  2 = max # of 1-2 neighbors
  5 = max # of special neighbors
  special bonds CPU = 0.00336599 secs
next j
jump MDPBB.in loopj
variable      randnj equal round(random(v_ntop0,$(v_ntop0 + v_nbwall0),$s))
variable      randnj equal round(random(v_ntop0,3604,$s))
variable      randnj equal round(random(v_ntop0,3604,234897))
variable      randatomj equal ${randnj}
variable      randatomj equal 3522
variable      randzj equal z[${randatomj}]
variable      randzj equal z[3522]
if            "${randzj} < $(v_wthick - 0.7)" then "jump MDPBB.in loopj"
jump MDPBB.in loopj
variable      randnj equal round(random(v_ntop0,$(v_ntop0 + v_nbwall0),$s))
variable      randnj equal round(random(v_ntop0,3604,$s))
variable      randnj equal round(random(v_ntop0,3604,234897))
variable      randatomj equal ${randnj}
variable      randatomj equal 2369
variable      randzj equal z[${randatomj}]
variable      randzj equal z[2369]
if            "${randzj} < $(v_wthick - 0.7)" then "jump MDPBB.in loopj"
jump MDPBB.in loopj
variable      randnj equal round(random(v_ntop0,$(v_ntop0 + v_nbwall0),$s))
variable      randnj equal round(random(v_ntop0,3604,$s))
variable      randnj equal round(random(v_ntop0,3604,234897))
variable      randatomj equal ${randnj}
variable      randatomj equal 3150
variable      randzj equal z[${randatomj}]
variable      randzj equal z[3150]
if            "${randzj} < $(v_wthick - 0.7)" then "jump MDPBB.in loopj"
jump MDPBB.in loopj
variable      randnj equal round(random(v_ntop0,$(v_ntop0 + v_nbwall0),$s))
variable      randnj equal round(random(v_ntop0,3604,$s))
variable      randnj equal round(random(v_ntop0,3604,234897))
variable      randatomj equal ${randnj}
variable      randatomj equal 2348
variable      randzj equal z[${randatomj}]
variable      randzj equal z[2348]
if            "${randzj} < $(v_wthick - 0.7)" then "jump MDPBB.in loopj"
jump MDPBB.in loopj
variable      randnj equal round(random(v_ntop0,$(v_ntop0 + v_nbwall0),$s))
variable      randnj equal round(random(v_ntop0,3604,$s))
variable      randnj equal round(random(v_ntop0,3604,234897))
variable      randatomj equal ${randnj}
variable      randatomj equal 3018
variable      randzj equal z[${randatomj}]
variable      randzj equal z[3018]
if            "${randzj} < $(v_wthick - 0.7)" then "jump MDPBB.in loopj"
jump MDPBB.in loopj
variable      randnj equal round(random(v_ntop0,$(v_ntop0 + v_nbwall0),$s))
variable      randnj equal round(random(v_ntop0,3604,$s))
variable      randnj equal round(random(v_ntop0,3604,234897))
variable      randatomj equal ${randnj}
variable      randatomj equal 3272
variable      randzj equal z[${randatomj}]
variable      randzj equal z[3272]
if            "${randzj} < $(v_wthick - 0.7)" then "jump MDPBB.in loopj"
set           atom ${randatomj} type 4
set           atom 3272 type 4
  1 settings made for type
group         bwg id ${randatomj}                         # Add this atom to a bot-wall-grafted group
group         bwg id 3272                         
27 atoms in group bwg
variable      bwgcount equal count(bwg)
print         "bwg contains ${bwgcount}"
bwg contains 27
print         "j = $(v_j)"
j = 27
variable      x0 equal x[${randatomj}]
variable      x0 equal x[3272]
variable      y0 equal y[${randatomj}]
variable      y0 equal y[3272]
variable      check0 equal ${check}
variable      check0 equal 4384
variable      b equal ${check}+1
variable      b equal 4384+1
if            "${bwgcount} != $(v_j)" then "jump MDPBB.in loopj"
create_atoms  1 single ${x0} ${y0} ${z0} mol bs 24987 units box remap yes rotate 0 0 0 1
create_atoms  1 single 11.1118073637774 ${y0} ${z0} mol bs 24987 units box remap yes rotate 0 0 0 1
create_atoms  1 single 11.1118073637774 10.3181068377933 ${z0} mol bs 24987 units box remap yes rotate 0 0 0 1
create_atoms  1 single 11.1118073637774 10.3181068377933 17 mol bs 24987 units box remap yes rotate 0 0 0 1
Created 30 atoms
  create_atoms CPU = 0.000106812 secs
variable      check1 equal ${check}
variable      check1 equal 4414
if            "${check1} != ${check0}" then "create_bonds  single/bond 2 ${randatomj} $b" "next j"
create_bonds  single/bond 2 ${randatomj} $b
create_bonds  single/bond 2 3272 $b
create_bonds  single/bond 2 3272 4385
  2 = max # of 1-2 neighbors
  5 = max # of special neighbors
  special bonds CPU = 0.000423908 secs
next j
jump MDPBB.in loopj
variable      randnj equal round(random(v_ntop0,$(v_ntop0 + v_nbwall0),$s))
variable      randnj equal round(random(v_ntop0,3604,$s))
variable      randnj equal round(random(v_ntop0,3604,234897))
variable      randatomj equal ${randnj}
variable      randatomj equal 3517
variable      randzj equal z[${randatomj}]
variable      randzj equal z[3517]
if            "${randzj} < $(v_wthick - 0.7)" then "jump MDPBB.in loopj"
jump MDPBB.in loopj
variable      randnj equal round(random(v_ntop0,$(v_ntop0 + v_nbwall0),$s))
variable      randnj equal round(random(v_ntop0,3604,$s))
variable      randnj equal round(random(v_ntop0,3604,234897))
variable      randatomj equal ${randnj}
variable      randatomj equal 3536
variable      randzj equal z[${randatomj}]
variable      randzj equal z[3536]
if            "${randzj} < $(v_wthick - 0.7)" then "jump MDPBB.in loopj"
set           atom ${randatomj} type 4
set           atom 3536 type 4
  1 settings made for type
group         bwg id ${randatomj}                         # Add this atom to a bot-wall-grafted group
group         bwg id 3536                         
28 atoms in group bwg
variable      bwgcount equal count(bwg)
print         "bwg contains ${bwgcount}"
bwg contains 28
print         "j = $(v_j)"
j = 28
variable      x0 equal x[${randatomj}]
variable      x0 equal x[3536]
variable      y0 equal y[${randatomj}]
variable      y0 equal y[3536]
variable      check0 equal ${check}
variable      check0 equal 4414
variable      b equal ${check}+1
variable      b equal 4414+1
if            "${bwgcount} != $(v_j)" then "jump MDPBB.in loopj"
create_atoms  1 single ${x0} ${y0} ${z0} mol bs 24987 units box remap yes rotate 0 0 0 1
create_atoms  1 single 12.6992084157456 ${y0} ${z0} mol bs 24987 units box remap yes rotate 0 0 0 1
create_atoms  1 single 12.6992084157456 18.2551120976343 ${z0} mol bs 24987 units box remap yes rotate 0 0 0 1
create_atoms  1 single 12.6992084157456 18.2551120976343 17 mol bs 24987 units box remap yes rotate 0 0 0 1
Created 30 atoms
  create_atoms CPU = 0.000118971 secs
variable      check1 equal ${check}
variable      check1 equal 4444
if            "${check1} != ${check0}" then "create_bonds  single/bond 2 ${randatomj} $b" "next j"
create_bonds  single/bond 2 ${randatomj} $b
create_bonds  single/bond 2 3536 $b
create_bonds  single/bond 2 3536 4415
  2 = max # of 1-2 neighbors
  5 = max # of special neighbors
  special bonds CPU = 0.000417948 secs
next j
jump MDPBB.in loopj
variable      randnj equal round(random(v_ntop0,$(v_ntop0 + v_nbwall0),$s))
variable      randnj equal round(random(v_ntop0,3604,$s))
variable      randnj equal round(random(v_ntop0,3604,234897))
variable      randatomj equal ${randnj}
variable      randatomj equal 2482
variable      randzj equal z[${randatomj}]
variable      randzj equal z[2482]
if            "${randzj} < $(v_wthick - 0.7)" then "jump MDPBB.in loopj"
jump MDPBB.in loopj
variable      randnj equal round(random(v_ntop0,$(v_ntop0 + v_nbwall0),$s))
variable      randnj equal round(random(v_ntop0,3604,$s))
variable      randnj equal round(random(v_ntop0,3604,234897))
variable      randatomj equal ${randnj}
variable      randatomj equal 3353
variable      randzj equal z[${randatomj}]
variable      randzj equal z[3353]
if            "${randzj} < $(v_wthick - 0.7)" then "jump MDPBB.in loopj"
jump MDPBB.in loopj
variable      randnj equal round(random(v_ntop0,$(v_ntop0 + v_nbwall0),$s))
variable      randnj equal round(random(v_ntop0,3604,$s))
variable      randnj equal round(random(v_ntop0,3604,234897))
variable      randatomj equal ${randnj}
variable      randatomj equal 2480
variable      randzj equal z[${randatomj}]
variable      randzj equal z[2480]
if            "${randzj} < $(v_wthick - 0.7)" then "jump MDPBB.in loopj"
jump MDPBB.in loopj
variable      randnj equal round(random(v_ntop0,$(v_ntop0 + v_nbwall0),$s))
variable      randnj equal round(random(v_ntop0,3604,$s))
variable      randnj equal round(random(v_ntop0,3604,234897))
variable      randatomj equal ${randnj}
variable      randatomj equal 2307
variable      randzj equal z[${randatomj}]
variable      randzj equal z[2307]
if            "${randzj} < $(v_wthick - 0.7)" then "jump MDPBB.in loopj"
jump MDPBB.in loopj
variable      randnj equal round(random(v_ntop0,$(v_ntop0 + v_nbwall0),$s))
variable      randnj equal round(random(v_ntop0,3604,$s))
variable      randnj equal round(random(v_ntop0,3604,234897))
variable      randatomj equal ${randnj}
variable      randatomj equal 3140
variable      randzj equal z[${randatomj}]
variable      randzj equal z[3140]
if            "${randzj} < $(v_wthick - 0.7)" then "jump MDPBB.in loopj"
set           atom ${randatomj} type 4
set           atom 3140 type 4
  1 settings made for type
group         bwg id ${randatomj}                         # Add this atom to a bot-wall-grafted group
group         bwg id 3140                         
29 atoms in group bwg
variable      bwgcount equal count(bwg)
print         "bwg contains ${bwgcount}"
bwg contains 29
print         "j = $(v_j)"
j = 29
variable      x0 equal x[${randatomj}]
variable      x0 equal x[3140]
variable      y0 equal y[${randatomj}]
variable      y0 equal y[3140]
variable      check0 equal ${check}
variable      check0 equal 4444
variable      b equal ${check}+1
variable      b equal 4444+1
if            "${bwgcount} != $(v_j)" then "jump MDPBB.in loopj"
create_atoms  1 single ${x0} ${y0} ${z0} mol bs 24987 units box remap yes rotate 0 0 0 1
create_atoms  1 single 0 ${y0} ${z0} mol bs 24987 units box remap yes rotate 0 0 0 1
create_atoms  1 single 0 7.1433047338569 ${z0} mol bs 24987 units box remap yes rotate 0 0 0 1
create_atoms  1 single 0 7.1433047338569 17 mol bs 24987 units box remap yes rotate 0 0 0 1
Created 30 atoms
  create_atoms CPU = 0.000179052 secs
variable      check1 equal ${check}
variable      check1 equal 4474
if            "${check1} != ${check0}" then "create_bonds  single/bond 2 ${randatomj} $b" "next j"
create_bonds  single/bond 2 ${randatomj} $b
create_bonds  single/bond 2 3140 $b
create_bonds  single/bond 2 3140 4445
  2 = max # of 1-2 neighbors
  5 = max # of special neighbors
  special bonds CPU = 0.000710011 secs
next j
jump MDPBB.in loopj
variable      randnj equal round(random(v_ntop0,$(v_ntop0 + v_nbwall0),$s))
variable      randnj equal round(random(v_ntop0,3604,$s))
variable      randnj equal round(random(v_ntop0,3604,234897))
variable      randatomj equal ${randnj}
variable      randatomj equal 2916
variable      randzj equal z[${randatomj}]
variable      randzj equal z[2916]
if            "${randzj} < $(v_wthick - 0.7)" then "jump MDPBB.in loopj"
jump MDPBB.in loopj
variable      randnj equal round(random(v_ntop0,$(v_ntop0 + v_nbwall0),$s))
variable      randnj equal round(random(v_ntop0,3604,$s))
variable      randnj equal round(random(v_ntop0,3604,234897))
variable      randatomj equal ${randnj}
variable      randatomj equal 2901
variable      randzj equal z[${randatomj}]
variable      randzj equal z[2901]
if            "${randzj} < $(v_wthick - 0.7)" then "jump MDPBB.in loopj"
jump MDPBB.in loopj
variable      randnj equal round(random(v_ntop0,$(v_ntop0 + v_nbwall0),$s))
variable      randnj equal round(random(v_ntop0,3604,$s))
variable      randnj equal round(random(v_ntop0,3604,234897))
variable      randatomj equal ${randnj}
variable      randatomj equal 3104
variable      randzj equal z[${randatomj}]
variable      randzj equal z[3104]
if            "${randzj} < $(v_wthick - 0.7)" then "jump MDPBB.in loopj"
set           atom ${randatomj} type 4
set           atom 3104 type 4
  1 settings made for type
group         bwg id ${randatomj}                         # Add this atom to a bot-wall-grafted group
group         bwg id 3104                         
30 atoms in group bwg
variable      bwgcount equal count(bwg)
print         "bwg contains ${bwgcount}"
bwg contains 30
print         "j = $(v_j)"
j = 30
variable      x0 equal x[${randatomj}]
variable      x0 equal x[3104]
variable      y0 equal y[${randatomj}]
variable      y0 equal y[3104]
variable      check0 equal ${check}
variable      check0 equal 4474
variable      b equal ${check}+1
variable      b equal 4474+1
if            "${bwgcount} != $(v_j)" then "jump MDPBB.in loopj"
create_atoms  1 single ${x0} ${y0} ${z0} mol bs 24987 units box remap yes rotate 0 0 0 1
create_atoms  1 single 6.3496042078728 ${y0} ${z0} mol bs 24987 units box remap yes rotate 0 0 0 1
create_atoms  1 single 6.3496042078728 5.5559036818887 ${z0} mol bs 24987 units box remap yes rotate 0 0 0 1
create_atoms  1 single 6.3496042078728 5.5559036818887 17 mol bs 24987 units box remap yes rotate 0 0 0 1
Created 30 atoms
  create_atoms CPU = 0.000201941 secs
variable      check1 equal ${check}
variable      check1 equal 4504
if            "${check1} != ${check0}" then "create_bonds  single/bond 2 ${randatomj} $b" "next j"
create_bonds  single/bond 2 ${randatomj} $b
create_bonds  single/bond 2 3104 $b
create_bonds  single/bond 2 3104 4475
  2 = max # of 1-2 neighbors
  5 = max # of special neighbors
  special bonds CPU = 0.000867844 secs
next j
jump MDPBB.in loopj

# Assign the beads to 2 different groups of grafted and non-grafted beads

group         gbeads type 2
60 atoms in group gbeads
group         fbeads type 3
1740 atoms in group fbeads

#--- Create harmonic bonds in the walls ---#
bond_coeff    3 harmonic 800.0 $(1.5874 * sqrt(2)/2)
bond_coeff    3 harmonic 800.0 1.1224613044555256103
create_bonds  many bwall bwall 3 0.5 1.2
Neighbor list info ...
  update every 1 steps, delay 10 steps, check yes
  max neighbors/atom: 4000, page size: 100000
  master list distance cutoff = 11.1225
  ghost atom cutoff = 11.1225
  binsize = 5.56123, bins = 4 4 13
  2 neighbor lists, perpetual/occasional/extra = 1 1 0
  (1) command create_bonds, occasional
      attributes: full, newton on
      pair build: full/bin
      stencil: full/bin/3d
      bin: standard
  (2) pair lj/cut, perpetual
      attributes: half, newton on
      pair build: half/bin/newton
      stencil: half/bin/3d/newton
      bin: standard
WARNING: Communication cutoff 11.1225 is shorter than a bond length based estimate of 11.6837. This may lead to errors. (../comm.cpp:685)
Added 6964 bonds, new total = 8764
  14 = max # of 1-2 neighbors
  14 = max # of special neighbors
  special bonds CPU = 0.00135708 secs
create_bonds  many twall twall 3 0.5 1.2
WARNING: Communication cutoff 11.1225 is shorter than a bond length based estimate of 11.6837. This may lead to errors. (../comm.cpp:685)
Added 6964 bonds, new total = 15728
  14 = max # of 1-2 neighbors
  14 = max # of special neighbors
  special bonds CPU = 0.00170207 secs

info system


fix           1 twall setforce 0.0 0.0 0.0  # Freeze top wall
fix           2 bwall setforce 0.0 0.0 0.0  # Freeze bottom wall

dump           1 all image 250 stg0.*.jpg type type zoom 2 view 60 120 bond none none
ERROR: Support for writing images in JPEG format not included (../dump_image.cpp:85)
Last command: dump           1 all image 250 stg0.*.jpg type type zoom 2 view 60 120 bond none none
