9376
Atoms. Timestep: 4000000
1 3.75 3.55271e-15 10.6621
1 4.5437 29.2063 10.6621
1 4.57812 29.9133 9.81065
1 3.77206 29.1964 9.81851
1 5.3374 3.55271e-15 10.6621
1 6.1311 29.2063 10.6621
1 6.15253 29.9201 9.85084
1 5.35693 29.1936 9.85717
1 6.9248 3.55271e-15 10.6621
1 7.7185 29.2063 10.6621
1 7.73255 29.9308 9.83083
1 6.94444 29.168 9.84483
1 8.5122 3.55271e-15 10.6621
1 9.3059 29.2063 10.6621
1 9.29508 29.9407 9.83326
1 8.5061 29.1613 9.8705
1 10.0996 3.55271e-15 10.6621
1 10.8933 29.2063 10.6621
1 10.8807 29.933 9.80051
1 10.0744 29.1863 9.88269
1 11.687 3.55271e-15 10.6621
1 12.4807 29.2063 10.6621
1 12.4771 29.9459 9.83955
1 11.6593 29.1832 9.87288
1 13.2744 3.55271e-15 10.6621
1 14.0681 29.2063 10.6621
1 14.0786 29.9589 9.83741
1 13.2633 29.1969 9.86483
1 14.8618 3.55271e-15 10.6621
1 15.6555 29.2063 10.6621
1 15.6656 29.9439 9.86296
1 14.8698 29.1791 9.87534
1 16.4492 3.55271e-15 10.6621
1 17.2429 29.2063 10.6621
1 17.2419 29.9183 9.82704
1 16.4397 29.1526 9.81843
1 18.0366 3.55271e-15 10.6621
1 18.8303 29.2063 10.6621
1 18.846 29.9296 9.84223
1 18.0341 29.1657 9.87618
1 19.624 3.55271e-15 10.6621
1 20.4177 29.2063 10.6621
1 20.4126 29.9361 9.83324
1 19.6067 29.1888 9.84173
1 21.2114 3.55271e-15 10.6621
1 22.0051 29.2063 10.6621
1 22.0216 29.9369 9.86241
1 21.2185 29.1885 9.8728
1 22.7988 3.55271e-15 10.6621
1 23.5925 29.2063 10.6621
1 23.586 29.9302 9.83966
1 22.8048 29.1826 9.85812
1 24.3862 3.55271e-15 10.6621
1 25.1799 29.2063 10.6621
1 25.1988 29.9292 9.83164
1 24.3966 29.1784 9.86641
1 25.9736 3.55271e-15 10.6621
1 26.7673 29.2063 10.6621
1 26.7872 29.9395 9.82833
1 25.9577 29.1555 9.86025
1 27.561 3.55271e-15 10.6621
1 28.3547 29.2063 10.6621
1 28.3582 29.9068 9.83083
1 27.557 29.1771 9.87555
1 29.1484 3.55271e-15 10.6621
1 29.9421 29.2063 10.6621
1 29.9539 29.9325 9.83861
1 29.1519 29.1943 9.85421
1 0.735818 3.55271e-15 10.6621
1 1.52952 29.2063 10.6621
1 1.52002 29.9351 9.83322
1 0.752938 29.1841 9.86041
1 2.32322 3.55271e-15 10.6621
1 3.11692 29.2063 10.6621
1 3.03137 29.8984 9.79518
1 2.27887 29.1624 9.89243
1 3.75 28.4126 10.6621
1 4.5437 27.6189 10.6621
1 4.55255 28.3822 9.85113
1 3.81771 27.6207 9.82249
1 5.3374 28.4126 10.6621
1 6.1311 27.6189 10.6621
1 6.13617 28.3972 9.89084
1 5.34201 27.5931 9.8934
1 6.9248 28.4126 10.6621
1 7.7185 27.6189 10.6621
1 7.72024 28.3951 9.87181
1 6.93713 27.6187 9.88268
1 8.5122 28.4126 10.6621
1 9.3059 27.6189 10.6621
1 9.29464 28.3946 9.86241
1 8.52715 27.6222 9.87521
1 10.0996 28.4126 10.6621
1 10.8933 27.6189 10.6621
1 10.8781 28.3894 9.87506
1 10.0994 27.6216 9.8627
1 11.687 28.4126 10.6621
1 12.4807 27.6189 10.6621
1 12.4891 28.4096 9.85776
1 11.7128 27.5864 9.90631
1 13.2744 28.4126 10.6621
1 14.0681 27.6189 10.6621
1 14.0661 28.4006 9.87457
1 13.2678 27.5936 9.85709
1 14.8618 28.4126 10.6621
1 15.6555 27.6189 10.6621
1 15.6501 28.3989 9.85783
1 14.8801 27.6019 9.8803
1 16.4492 28.4126 10.6621
1 17.2429 27.6189 10.6621
1 17.238 28.4084 9.87074
1 16.4571 27.6238 9.87663
1 18.0366 28.4126 10.6621
1 18.8303 27.6189 10.6621
1 18.851 28.3816 9.87184
1 18.0429 27.6045 9.87062
1 19.624 28.4126 10.6621
1 20.4177 27.6189 10.6621
1 20.4166 28.405 9.8568
1 19.6219 27.5711 9.88003
1 21.2114 28.4126 10.6621
1 22.0051 27.6189 10.6621
1 22.0039 28.3853 9.87703
1 21.2018 27.5868 9.88737
1 22.7988 28.4126 10.6621
1 23.5925 27.6189 10.6621
1 23.5971 28.3634 9.85529
1 22.7822 27.6114 9.86107
1 24.3862 28.4126 10.6621
1 25.1799 27.6189 10.6621
1 25.1707 28.405 9.86429
1 24.4016 27.6008 9.87672
1 25.9736 28.4126 10.6621
1 26.7673 27.6189 10.6621
1 26.738 28.3911 9.91272
1 25.9694 27.6402 9.88014
1 27.561 28.4126 10.6621
1 28.3547 27.6189 10.6621
1 28.3672 28.4275 9.84382
1 27.546 27.6274 9.86151
1 29.1484 28.4126 10.6621
1 29.9421 27.6189 10.6621
1 29.9518 28.3732 9.86779
1 29.1084 27.5964 9.84919
1 0.735818 28.4126 10.6621
1 1.52952 27.6189 10.6621
1 1.51961 28.378 9.89393
1 0.751361 27.5916 9.87014
1 2.32322 28.4126 10.6621
1 3.11692 27.6189 10.6621
1 3.05102 28.3985 9.83432
1 2.29276 27.6296 9.87306
1 3.75 26.8252 10.6621
1 4.5437 26.0315 10.6621
1 4.55897 26.8093 9.87353
1 3.80999 26.0308 9.83915
1 5.3374 26.8252 10.6621
1 6.1311 26.0315 10.6621
1 6.17087 26.8275 9.85859
1 5.34334 26.0067 9.85112
1 6.9248 26.8252 10.6621
1 7.7185 26.0315 10.6621
1 7.73292 26.8472 9.87439
1 6.91781 26.0427 9.86298
1 8.5122 26.8252 10.6621
1 9.3059 26.0315 10.6621
1 9.31795 26.8326 9.86466
1 8.51825 26.0481 9.85561
1 10.0996 26.8252 10.6621
1 10.8933 26.0315 10.6621
1 10.8797 26.819 9.86451
1 10.0965 26.0164 9.89826
1 11.687 26.8252 10.6621
1 12.4807 26.0315 10.6621
1 12.48 26.8133 9.86921
1 11.7016 26.0218 9.86674
1 13.2744 26.8252 10.6621
1 14.0681 26.0315 10.6621
1 14.0469 26.8202 9.87707
1 13.2783 26.0062 9.87698
1 14.8618 26.8252 10.6621
1 15.6555 26.0315 10.6621
1 15.6633 26.8307 9.88149
1 14.8707 26.0315 9.87491
1 16.4492 26.8252 10.6621
1 17.2429 26.0315 10.6621
1 17.2588 26.8295 9.8743
1 16.4643 26.0243 9.8476
1 18.0366 26.8252 10.6621
1 18.8303 26.0315 10.6621
1 18.8495 26.8006 9.87087
1 18.0553 26.0035 9.87901
1 19.624 26.8252 10.6621
1 20.4177 26.0315 10.6621
1 20.4083 26.8119 9.87701
1 19.614 26.0306 9.88607
1 21.2114 26.8252 10.6621
1 22.0051 26.0315 10.6621
1 21.9938 26.8157 9.87225
1 21.2277 26.019 9.87687
1 22.7988 26.8252 10.6621
1 23.5925 26.0315 10.6621
1 23.5868 26.8061 9.89234
1 22.803 26.0239 9.87768
1 24.3862 26.8252 10.6621
1 25.1799 26.0315 10.6621
1 25.1671 26.8124 9.88005
1 24.3933 26.0215 9.88748
1 25.9736 26.8252 10.6621
1 26.7673 26.0315 10.6621
1 26.7565 26.8063 9.87684
1 25.9784 26.0329 9.91156
1 27.561 26.8252 10.6621
1 28.3547 26.0315 10.6621
1 28.3364 26.7973 9.87009
1 27.5529 26.0441 9.85125
1 29.1484 26.8252 10.6621
1 29.9421 26.0315 10.6621
1 29.9336 26.8141 9.85751
1 29.1189 26.0368 9.88962
1 0.735818 26.8252 10.6621
1 1.52952 26.0315 10.6621
1 1.49945 26.8556 9.86031
1 0.710113 26.0185 9.87792
1 2.32322 26.8252 10.6621
1 3.11692 26.0315 10.6621
1 3.00812 26.8418 9.85519
1 2.269 26.0576 9.86063
1 3.75 25.2378 10.6621
1 4.5437 24.4441 10.6621
1 4.55783 25.2597 9.86099
1 3.81832 24.4406 9.83606
1 5.3374 25.2378 10.6621
1 6.1311 24.4441 10.6621
1 6.13054 25.2385 9.86704
1 5.33274 24.4547 9.88525
1 6.9248 25.2378 10.6621
1 7.7185 24.4441 10.6621
1 7.72843 25.2514 9.88046
1 6.93777 24.4406 9.89124
1 8.5122 25.2378 10.6621
1 9.3059 24.4441 10.6621
1 9.31686 25.2438 9.86084
1 8.53384 24.4411 9.87939
1 10.0996 25.2378 10.6621
1 10.8933 24.4441 10.6621
1 10.9163 25.2286 9.86317
1 10.1086 24.4352 9.88416
1 11.687 25.2378 10.6621
1 12.4807 24.4441 10.6621
1 12.4853 25.2129 9.87337
1 11.6857 24.4317 9.87338
1 13.2744 25.2378 10.6621
1 14.0681 24.4441 10.6621
1 14.0706 25.2342 9.87372
1 13.2907 24.4024 9.87121
1 14.8618 25.2378 10.6621
1 15.6555 24.4441 10.6621
1 15.6611 25.2453 9.87318
1 14.8551 24.4458 9.89006
1 16.4492 25.2378 10.6621
1 17.2429 24.4441 10.6621
1 17.2261 25.2472 9.87955
1 16.4273 24.4554 9.86707
1 18.0366 25.2378 10.6621
1 18.8303 24.4441 10.6621
1 18.8446 25.241 9.86868
1 18.0215 24.4441 9.8683
1 19.624 25.2378 10.6621
1 20.4177 24.4441 10.6621
1 20.3943 25.2331 9.86338
1 19.6072 24.4348 9.87136
1 21.2114 25.2378 10.6621
1 22.0051 24.4441 10.6621
1 21.9801 25.2304 9.87054
1 21.2239 24.453 9.87332
1 22.7988 25.2378 10.6621
1 23.5925 24.4441 10.6621
1 23.596 25.2207 9.85332
1 22.806 24.4276 9.85915
1 24.3862 25.2378 10.6621
1 25.1799 24.4441 10.6621
1 25.1971 25.2519 9.84256
1 24.4055 24.4333 9.8628
1 25.9736 25.2378 10.6621
1 26.7673 24.4441 10.6621
1 26.7727 25.2631 9.85846
1 25.9849 24.4778 9.84576
1 27.561 25.2378 10.6621
1 28.3547 24.4441 10.6621
1 28.3306 25.2455 9.86975
1 27.5474 24.4339 9.86217
1 29.1484 25.2378 10.6621
1 29.9421 24.4441 10.6621
1 29.9222 25.2335 9.86612
1 29.1389 24.4317 9.86738
1 0.735818 25.2378 10.6621
1 1.52952 24.4441 10.6621
1 1.50217 25.2428 9.8755
1 0.707129 24.4186 9.87664
1 2.32322 25.2378 10.6621
1 3.11692 24.4441 10.6621
1 3.03773 25.2426 9.8348
1 2.29966 24.4341 9.86808
1 3.75 23.6504 10.6621
1 4.5437 22.8567 10.6621
1 4.55656 23.6658 9.85697
1 3.83146 22.8383 9.82157
1 5.3374 23.6504 10.6621
1 6.1311 22.8567 10.6621
1 6.13476 23.6826 9.88068
1 5.35368 22.8729 9.85658
1 6.9248 23.6504 10.6621
1 7.7185 22.8567 10.6621
1 7.70704 23.6404 9.86798
1 6.95639 22.8511 9.87745
1 8.5122 23.6504 10.6621
1 9.3059 22.8567 10.6621
1 9.32988 23.6366 9.87989
1 8.51417 22.8633 9.8536
1 10.0996 23.6504 10.6621
1 10.8933 22.8567 10.6621
1 10.9069 23.626 9.86263
1 10.092 22.8644 9.85465
1 11.687 23.6504 10.6621
1 12.4807 22.8567 10.6621
1 12.4801 23.6522 9.87023
1 11.6826 22.8466 9.87666
1 13.2744 23.6504 10.6621
1 14.0681 22.8567 10.6621
1 14.079 23.6378 9.861
1 13.282 22.8603 9.85602
1 14.8618 23.6504 10.6621
1 15.6555 22.8567 10.6621
1 15.6627 23.6614 9.88476
1 14.8606 22.8399 9.86227
1 16.4492 23.6504 10.6621
1 17.2429 22.8567 10.6621
1 17.2316 23.6565 9.86444
1 16.4474 22.8501 9.87445
1 18.0366 23.6504 10.6621
1 18.8303 22.8567 10.6621
1 18.8245 23.642 9.8594
1 18.007 22.8558 9.86816
1 19.624 23.6504 10.6621
1 20.4177 22.8567 10.6621
1 20.4273 23.6574 9.86488
1 19.6162 22.8584 9.88555
1 21.2114 23.6504 10.6621
1 22.0051 22.8567 10.6621
1 22.0253 23.6429 9.8844
1 21.2024 22.8528 9.87452
1 22.7988 23.6504 10.6621
1 23.5925 22.8567 10.6621
1 23.6264 23.6602 9.85935
1 22.7782 22.8441 9.86264
1 24.3862 23.6504 10.6621
1 25.1799 22.8567 10.6621
1 25.2005 23.6456 9.86728
1 24.407 22.8585 9.88825
1 25.9736 23.6504 10.6621
1 26.7673 22.8567 10.6621
1 26.7712 23.6501 9.85115
1 25.9663 22.8526 9.8821
1 27.561 23.6504 10.6621
1 28.3547 22.8567 10.6621
1 28.3371 23.6642 9.85876
1 27.5516 22.8559 9.89232
1 29.1484 23.6504 10.6621
1 29.9421 22.8567 10.6621
1 29.9482 23.6295 9.89933
1 29.1327 22.8475 9.89274
1 0.735818 23.6504 10.6621
1 1.52952 22.8567 10.6621
1 1.52014 23.6539 9.87668
1 0.726312 22.8646 9.87535
1 2.32322 23.6504 10.6621
1 3.11692 22.8567 10.6621
1 3.07047 23.6238 9.83777
1 2.28807 22.8641 9.86751
1 3.75 22.063 10.6621
1 4.5437 21.2693 10.6621
1 4.58092 22.0808 9.87761
1 3.80573 21.2525 9.82307
1 5.3374 22.063 10.6621
1 6.1311 21.2693 10.6621
1 6.12795 22.0769 9.86332
1 5.35319 21.2635 9.89344
1 6.9248 22.063 10.6621
1 7.7185 21.2693 10.6621
1 7.74392 22.0556 9.88189
1 6.9167 21.259 9.87725
1 8.5122 22.063 10.6621
1 9.3059 21.2693 10.6621
1 9.31569 22.0591 9.85906
1 8.52682 21.2597 9.83852
1 10.0996 22.063 10.6621
1 10.8933 21.2693 10.6621
1 10.8776 22.0498 9.87495
1 10.101 21.2583 9.87023
1 11.687 22.063 10.6621
1 12.4807 21.2693 10.6621
1 12.49 22.0712 9.88905
1 11.6694 21.2454 9.87604
1 13.2744 22.063 10.6621
1 14.0681 21.2693 10.6621
1 14.08 22.0781 9.83698
1 13.2896 21.2782 9.87682
1 14.8618 22.063 10.6621
1 15.6555 21.2693 10.6621
1 15.6584 22.0397 9.86242
1 14.8279 21.2803 9.85763
1 16.4492 22.063 10.6621
1 17.2429 21.2693 10.6621
1 17.2151 22.0644 9.86474
1 16.4545 21.2802 9.86487
1 18.0366 22.063 10.6621
1 18.8303 21.2693 10.6621
1 18.8203 22.0628 9.90218
1 18.0553 21.2419 9.87744
1 19.624 22.063 10.6621
1 20.4177 21.2693 10.6621
1 20.4352 22.0612 9.87466
1 19.5792 21.2685 9.87909
1 21.2114 22.063 10.6621
1 22.0051 21.2693 10.6621
1 21.9909 22.0607 9.84644
1 21.2013 21.2335 9.87543
1 22.7988 22.063 10.6621
1 23.5925 21.2693 10.6621
1 23.5961 22.0757 9.88977
1 22.7953 21.2927 9.88642
1 24.3862 22.063 10.6621
1 25.1799 21.2693 10.6621
1 25.1789 22.0516 9.88454
1 24.3941 21.2928 9.87424
1 25.9736 22.063 10.6621
1 26.7673 21.2693 10.6621
1 26.7706 22.0504 9.86008
1 25.9671 21.2528 9.86134
1 27.561 22.063 10.6621
1 28.3547 21.2693 10.6621
1 28.3509 22.0527 9.85486
1 27.5399 21.248 9.87716
1 29.1484 22.063 10.6621
1 29.9421 21.2693 10.6621
1 29.9228 22.0483 9.86279
1 29.1299 21.2587 9.88958
1 0.735818 22.063 10.6621
1 1.52952 21.2693 10.6621
1 1.50042 22.0507 9.88158
1 0.713358 21.2829 9.86268
1 2.32322 22.063 10.6621
1 3.11692 21.2693 10.6621
1 3.02187 22.0829 9.84495
1 2.2997 21.2876 9.83708
1 3.75 20.4756 10.6621
1 4.5437 19.6819 10.6621
1 4.57282 20.4601 9.88006
1 3.84813 19.6716 9.84207
1 5.3374 20.4756 10.6621
1 6.1311 19.6819 10.6621
1 6.14012 20.4627 9.85763
1 5.35586 19.688 9.85047
1 6.9248 20.4756 10.6621
1 7.7185 19.6819 10.6621
1 7.7198 20.4659 9.87997
1 6.95599 19.6863 9.86204
1 8.5122 20.4756 10.6621
1 9.3059 19.6819 10.6621
1 9.31286 20.4734 9.87397
1 8.51083 19.692 9.89355
1 10.0996 20.4756 10.6621
1 10.8933 19.6819 10.6621
1 10.898 20.4694 9.86382
1 10.096 19.6757 9.86312
1 11.687 20.4756 10.6621
1 12.4807 19.6819 10.6621
1 12.4835 20.4777 9.88686
1 11.6954 19.6908 9.88317
1 13.2744 20.4756 10.6621
1 14.0681 19.6819 10.6621
1 14.0784 20.4761 9.85359
1 13.2668 19.6968 9.86873
1 14.8618 20.4756 10.6621
1 15.6555 19.6819 10.6621
1 15.6635 20.5015 9.86067
1 14.8469 19.7004 9.8749
1 16.4492 20.4756 10.6621
1 17.2429 19.6819 10.6621
1 17.2408 20.4641 9.84764
1 16.442 19.6546 9.87544
1 18.0366 20.4756 10.6621
1 18.8303 19.6819 10.6621
1 18.8294 20.4496 9.87308
1 18.0329 19.676 9.85111
1 19.624 20.4756 10.6621
1 20.4177 19.6819 10.6621
1 20.4086 20.4829 9.87402
1 19.6193 19.6775 9.85304
1 21.2114 20.4756 10.6621
1 22.0051 19.6819 10.6621
1 22.0103 20.4665 9.87379
1 21.1915 19.6997 9.8696
1 22.7988 20.4756 10.6621
1 23.5925 19.6819 10.6621
1 23.5762 20.4662 9.85963
1 22.7941 19.7058 9.86198
1 24.3862 20.4756 10.6621
1 25.1799 19.6819 10.6621
1 25.1726 20.4964 9.8835
1 24.3864 19.6971 9.87247
1 25.9736 20.4756 10.6621
1 26.7673 19.6819 10.6621
1 26.7313 20.458 9.87634
1 25.9705 19.655 9.89086
1 27.561 20.4756 10.6621
1 28.3547 19.6819 10.6621
1 28.3419 20.4788 9.85995
1 27.5349 19.7025 9.87006
1 29.1484 20.4756 10.6621
1 29.9421 19.6819 10.6621
1 29.9159 20.4803 9.88706
1 29.1431 19.6755 9.86575
1 0.735818 20.4756 10.6621
1 1.52952 19.6819 10.6621
1 1.49959 20.4865 9.8799
1 0.71697 19.707 9.88341
1 2.32322 20.4756 10.6621
1 3.11692 19.6819 10.6621
1 3.03427 20.4586 9.82368
1 2.28362 19.6556 9.86219
1 3.75 18.8882 10.6621
1 4.5437 18.0945 10.6621
1 4.57825 18.8829 9.87368
1 3.82715 18.1105 9.83767
1 5.3374 18.8882 10.6621
1 6.1311 18.0945 10.6621
1 6.1525 18.8989 9.8639
1 5.36943 18.1024 9.85294
1 6.9248 18.8882 10.6621
1 7.7185 18.0945 10.6621
1 7.73311 18.8999 9.87307
1 6.93762 18.1169 9.86888
1 8.5122 18.8882 10.6621
1 9.3059 18.0945 10.6621
1 9.30352 18.8942 9.8798
1 8.5285 18.0899 9.88503
1 10.0996 18.8882 10.6621
1 10.8933 18.0945 10.6621
1 10.9049 18.8928 9.88937
1 10.1192 18.1192 9.86623
1 11.687 18.8882 10.6621
1 12.4807 18.0945 10.6621
1 12.5121 18.8649 9.8921
1 11.7007 18.0956 9.86116
1 13.2744 18.8882 10.6621
1 14.0681 18.0945 10.6621
1 14.0803 18.8916 9.84409
1 13.2742 18.0825 9.87109
1 14.8618 18.8882 10.6621
1 15.6555 18.0945 10.6621
1 15.6787 18.8895 9.84728
1 14.8624 18.079 9.86605
1 16.4492 18.8882 10.6621
1 17.2429 18.0945 10.6621
1 17.2635 18.8707 9.86236
1 16.4534 18.1009 9.83796
1 18.0366 18.8882 10.6621
1 18.8303 18.0945 10.6621
1 18.8416 18.8874 9.84268
1 18.0554 18.1229 9.85789
1 19.624 18.8882 10.6621
1 20.4177 18.0945 10.6621
1 20.4126 18.886 9.88378
1 19.6182 18.0777 9.86319
1 21.2114 18.8882 10.6621
1 22.0051 18.0945 10.6621
1 21.9871 18.8952 9.85818
1 21.2117 18.0878 9.8699
1 22.7988 18.8882 10.6621
1 23.5925 18.0945 10.6621
1 23.5943 18.8751 9.88183
1 22.7641 18.0856 9.88272
1 24.3862 18.8882 10.6621
1 25.1799 18.0945 10.6621
1 25.2009 18.8903 9.83997
1 24.3931 18.0914 9.87194
1 25.9736 18.8882 10.6621
1 26.7673 18.0945 10.6621
1 26.7691 18.908 9.86623
1 25.9796 18.0891 9.8555
1 27.561 18.8882 10.6621
1 28.3547 18.0945 10.6621
1 28.3574 18.8876 9.86929
1 27.5645 18.1023 9.8535
1 29.1484 18.8882 10.6621
1 29.9421 18.0945 10.6621
1 29.958 18.889 9.8546
1 29.1496 18.0943 9.89133
1 0.735818 18.8882 10.6621
1 1.52952 18.0945 10.6621
1 1.5003 18.8898 9.85537
1 0.710441 18.0999 9.87371
1 2.32322 18.8882 10.6621
1 3.11692 18.0945 10.6621
1 3.05721 18.8785 9.83132
1 2.31378 18.1123 9.84804
1 3.75 17.3008 10.6621
1 4.5437 16.5071 10.6621
1 4.56643 17.3021 9.86974
1 3.81917 16.51 9.83816
1 5.3374 17.3008 10.6621
1 6.1311 16.5071 10.6621
1 6.17791 17.333 9.87964
1 5.3546 16.5234 9.87112
1 6.9248 17.3008 10.6621
1 7.7185 16.5071 10.6621
1 7.70863 17.3297 9.85317
1 6.95013 16.5177 9.88178
1 8.5122 17.3008 10.6621
1 9.3059 16.5071 10.6621
1 9.31445 17.313 9.88029
1 8.53016 16.5309 9.87447
1 10.0996 17.3008 10.6621
1 10.8933 16.5071 10.6621
1 10.9034 17.322 9.86426
1 10.1098 16.5442 9.87117
1 11.687 17.3008 10.6621
1 12.4807 16.5071 10.6621
1 12.4912 17.2947 9.84071
1 11.6842 16.5268 9.84497
1 13.2744 17.3008 10.6621
1 14.0681 16.5071 10.6621
1 14.0678 17.2983 9.86479
1 13.295 16.4976 9.88554
1 14.8618 17.3008 10.6621
1 15.6555 16.5071 10.6621
1 15.6785 17.334 9.88955
1 14.8616 16.5043 9.86726
1 16.4492 17.3008 10.6621
1 17.2429 16.5071 10.6621
1 17.2312 17.2904 9.86936
1 16.448 16.5048 9.85876
1 18.0366 17.3008 10.6621
1 18.8303 16.5071 10.6621
1 18.8341 17.2803 9.8622
1 18.0414 16.4854 9.88113
1 19.624 17.3008 10.6621
1 20.4177 16.5071 10.6621
1 20.3931 17.3061 9.8442
1 19.6393 16.5034 9.85393
1 21.2114 17.3008 10.6621
1 22.0051 16.5071 10.6621
1 22.0046 17.2964 9.88209
1 21.2135 16.5384 9.88141
1 22.7988 17.3008 10.6621
1 23.5925 16.5071 10.6621
1 23.5771 17.2811 9.88467
1 22.8126 16.5003 9.87777
1 24.3862 17.3008 10.6621
1 25.1799 16.5071 10.6621
1 25.2036 17.2918 9.89022
1 24.4154 16.517 9.85484
1 25.9736 17.3008 10.6621
1 26.7673 16.5071 10.6621
1 26.7688 17.2801 9.86277
1 25.9844 16.4816 9.86961
1 27.561 17.3008 10.6621
1 28.3547 16.5071 10.6621
1 28.3637 17.3049 9.85853
1 27.5977 16.5093 9.86306
1 29.1484 17.3008 10.6621
1 29.9421 16.5071 10.6621
1 29.9347 17.2893 9.87385
1 29.141 16.4939 9.87559
1 0.735818 17.3008 10.6621
1 1.52952 16.5071 10.6621
1 1.54092 17.3292 9.88248
1 0.74334 16.5294 9.89273
1 2.32322 17.3008 10.6621
1 3.11692 16.5071 10.6621
1 3.04336 17.3085 9.83958
1 2.30283 16.4857 9.85337
1 3.75 15.7134 10.6621
1 4.5437 14.9197 10.6621
1 4.58956 15.7265 9.84518
1 3.7981 14.9068 9.8402
1 5.3374 15.7134 10.6621
1 6.1311 14.9197 10.6621
1 6.15098 15.7055 9.85284
1 5.32651 14.9069 9.85046
1 6.9248 15.7134 10.6621
1 7.7185 14.9197 10.6621
1 7.70638 15.7405 9.86773
1 6.93148 14.9058 9.86094
1 8.5122 15.7134 10.6621
1 9.3059 14.9197 10.6621
1 9.29279 15.7338 9.84409
1 8.51202 14.9154 9.85988
1 10.0996 15.7134 10.6621
1 10.8933 14.9197 10.6621
1 10.8704 15.7293 9.87842
1 10.1077 14.9105 9.86614
1 11.687 15.7134 10.6621
1 12.4807 14.9197 10.6621
1 12.4775 15.7102 9.86354
1 11.6799 14.9351 9.87619
1 13.2744 15.7134 10.6621
1 14.0681 14.9197 10.6621
1 14.0626 15.6879 9.85186
1 13.2718 14.8813 9.86475
1 14.8618 15.7134 10.6621
1 15.6555 14.9197 10.6621
1 15.6558 15.6867 9.8675
1 14.8525 14.914 9.87203
1 16.4492 15.7134 10.6621
1 17.2429 14.9197 10.6621
1 17.2527 15.7128 9.88729
1 16.442 14.9438 9.8911
1 18.0366 15.7134 10.6621
1 18.8303 14.9197 10.6621
1 18.8735 15.7091 9.85176
1 18.056 14.9251 9.87573
1 19.624 15.7134 10.6621
1 20.4177 14.9197 10.6621
1 20.4209 15.7291 9.86725
1 19.6353 14.9177 9.89101
1 21.2114 15.7134 10.6621
1 22.0051 14.9197 10.6621
1 22.0074 15.7231 9.86877
1 21.2098 14.9236 9.88029
1 22.7988 15.7134 10.6621
1 23.5925 14.9197 10.6621
1 23.5938 15.7133 9.87791
1 22.7874 14.9038 9.88285
1 24.3862 15.7134 10.6621
1 25.1799 14.9197 10.6621
1 25.1715 15.6991 9.87242
1 24.3652 14.9118 9.88027
1 25.9736 15.7134 10.6621
1 26.7673 14.9197 10.6621
1 26.7437 15.7005 9.85668
1 25.9908 14.8987 9.8659
1 27.561 15.7134 10.6621
1 28.3547 14.9197 10.6621
1 28.3674 15.6756 9.85584
1 27.555 14.9143 9.86678
1 29.1484 15.7134 10.6621
1 29.9421 14.9197 10.6621
1 29.9451 15.7187 9.87556
1 29.1473 14.9164 9.87209
1 0.735818 15.7134 10.6621
1 1.52952 14.9197 10.6621
1 1.50375 15.7392 9.88103
1 0.730801 14.9376 9.86882
1 2.32322 15.7134 10.6621
1 3.11692 14.9197 10.6621
1 3.07978 15.7051 9.85272
1 2.28939 14.9317 9.85749
1 3.75 14.126 10.6621
1 4.5437 13.3323 10.6621
1 4.56817 14.1104 9.86402
1 3.80307 13.3568 9.82932
1 5.3374 14.126 10.6621
1 6.1311 13.3323 10.6621
1 6.15013 14.112 9.8506
1 5.35611 13.335 9.85482
1 6.9248 14.126 10.6621
1 7.7185 13.3323 10.6621
1 7.71232 14.1146 9.85475
1 6.93131 13.3385 9.85729
1 8.5122 14.126 10.6621
1 9.3059 13.3323 10.6621
1 9.30494 14.1247 9.86889
1 8.5133 13.3291 9.88276
1 10.0996 14.126 10.6621
1 10.8933 13.3323 10.6621
1 10.9152 14.1173 9.85897
1 10.1183 13.3303 9.8579
1 11.687 14.126 10.6621
1 12.4807 13.3323 10.6621
1 12.4611 14.1292 9.8435
1 11.6743 13.3146 9.87093
1 13.2744 14.126 10.6621
1 14.0681 13.3323 10.6621
1 14.0664 14.1273 9.86637
1 13.2581 13.3453 9.86817
1 14.8618 14.126 10.6621
1 15.6555 13.3323 10.6621
1 15.6723 14.1221 9.84431
1 14.8787 13.3481 9.84119
1 16.4492 14.126 10.6621
1 17.2429 13.3323 10.6621
1 17.2278 14.132 9.87092
1 16.4434 13.3289 9.87636
1 18.0366 14.126 10.6621
1 18.8303 13.3323 10.6621
1 18.8344 14.1359 9.87047
1 18.0018 13.3481 9.88062
1 19.624 14.126 10.6621
1 20.4177 13.3323 10.6621
1 20.4006 14.1087 9.88023
1 19.6324 13.3165 9.85989
1 21.2114 14.126 10.6621
1 22.0051 13.3323 10.6621
1 22.0016 14.1516 9.87407
1 21.2239 13.3419 9.88832
1 22.7988 14.126 10.6621
1 23.5925 13.3323 10.6621
1 23.6013 14.1379 9.88826
1 22.793 13.3449 9.87343
1 24.3862 14.126 10.6621
1 25.1799 13.3323 10.6621
1 25.1887 14.122 9.8701
1 24.3846 13.3549 9.85767
1 25.9736 14.126 10.6621
1 26.7673 13.3323 10.6621
1 26.7705 14.1265 9.85188
1 25.9396 13.3203 9.86942
1 27.561 14.126 10.6621
1 28.3547 13.3323 10.6621
1 28.355 14.1132 9.88217
1 27.5848 13.3111 9.85996
1 29.1484 14.126 10.6621
1 29.9421 13.3323 10.6621
1 29.9326 14.1413 9.87847
1 29.1594 13.3352 9.86217
1 0.735818 14.126 10.6621
1 1.52952 13.3323 10.6621
1 1.51505 14.1246 9.85456
1 0.745053 13.3458 9.87856
1 2.32322 14.126 10.6621
1 3.11692 13.3323 10.6621
1 3.03479 14.1277 9.83422
1 2.29187 13.3464 9.85753
1 3.75 12.5386 10.6621
1 4.5437 11.7449 10.6621
1 4.5571 12.5361 9.85126
1 3.8188 11.7317 9.83748
1 5.3374 12.5386 10.6621
1 6.1311 11.7449 10.6621
1 6.12518 12.5248 9.87753
1 5.32934 11.7361 9.86221
1 6.9248 12.5386 10.6621
1 7.7185 11.7449 10.6621
1 7.74292 12.5253 9.86943
1 6.92811 11.7435 9.86229
1 8.5122 12.5386 10.6621
1 9.3059 11.7449 10.6621
1 9.33015 12.542 9.85706
1 8.53883 11.7323 9.87623
1 10.0996 12.5386 10.6621
1 10.8933 11.7449 10.6621
1 10.8744 12.5337 9.86525
1 10.1044 11.7471 9.86486
1 11.687 12.5386 10.6621
1 12.4807 11.7449 10.6621
1 12.4942 12.5286 9.87368
1 11.6806 11.7504 9.87346
1 13.2744 12.5386 10.6621
1 14.0681 11.7449 10.6621
1 14.0549 12.5467 9.84776
1 13.286 11.7302 9.85736
1 14.8618 12.5386 10.6621
1 15.6555 11.7449 10.6621
1 15.6449 12.5441 9.88347
1 14.8626 11.7316 9.8591
1 16.4492 12.5386 10.6621
1 17.2429 11.7449 10.6621
1 17.2528 12.529 9.86538
1 16.4362 11.7245 9.87607
1 18.0366 12.5386 10.6621
1 18.8303 11.7449 10.6621
1 18.8309 12.5272 9.8639
1 18.0395 11.7537 9.87678
1 19.624 12.5386 10.6621
1 20.4177 11.7449 10.6621
1 20.4166 12.5356 9.86115
1 19.6267 11.7431 9.8783
1 21.2114 12.5386 10.6621
1 22.0051 11.7449 10.6621
1 22.0159 12.5076 9.87481
1 21.2225 11.7258 9.88531
1 22.7988 12.5386 10.6621
1 23.5925 11.7449 10.6621
1 23.5732 12.5468 9.87995
1 22.8083 11.7456 9.8593
1 24.3862 12.5386 10.6621
1 25.1799 11.7449 10.6621
1 25.1362 12.5505 9.8854
1 24.3804 11.7665 9.86584
1 25.9736 12.5386 10.6621
1 26.7673 11.7449 10.6621
1 26.7454 12.5475 9.85627
1 25.9587 11.7437 9.86016
1 27.561 12.5386 10.6621
1 28.3547 11.7449 10.6621
1 28.3346 12.5307 9.84768
1 27.5674 11.7684 9.86242
1 29.1484 12.5386 10.6621
1 29.9421 11.7449 10.6621
1 29.9319 12.5448 9.87288
1 29.1412 11.7815 9.88742
1 0.735818 12.5386 10.6621
1 1.52952 11.7449 10.6621
1 1.51423 12.5247 9.86642
1 0.727599 11.7597 9.87528
1 2.32322 12.5386 10.6621
1 3.11692 11.7449 10.6621
1 3.04767 12.5315 9.81082
1 2.29161 11.744 9.85221
1 3.75 10.9512 10.6621
1 4.5437 10.1575 10.6621
1 4.58148 10.9149 9.85947
1 3.78474 10.1518 9.81967
1 5.3374 10.9512 10.6621
1 6.1311 10.1575 10.6621
1 6.16087 10.9487 9.87753
1 5.3621 10.1574 9.87286
1 6.9248 10.9512 10.6621
1 7.7185 10.1575 10.6621
1 7.72739 10.9206 9.88787
1 6.91984 10.1422 9.86599
1 8.5122 10.9512 10.6621
1 9.3059 10.1575 10.6621
1 9.30076 10.9438 9.87424
1 8.51792 10.1424 9.8563
1 10.0996 10.9512 10.6621
1 10.8933 10.1575 10.6621
1 10.8988 10.9577 9.88136
1 10.106 10.1718 9.8583
1 11.687 10.9512 10.6621
1 12.4807 10.1575 10.6621
1 12.4728 10.9385 9.83446
1 11.6956 10.1306 9.86098
1 13.2744 10.9512 10.6621
1 14.0681 10.1575 10.6621
1 14.0708 10.9473 9.87627
1 13.2528 10.1745 9.86784
1 14.8618 10.9512 10.6621
1 15.6555 10.1575 10.6621
1 15.6381 10.9452 9.85746
1 14.8399 10.1383 9.85351
1 16.4492 10.9512 10.6621
1 17.2429 10.1575 10.6621
1 17.2622 10.957 9.87344
1 16.4486 10.1442 9.83985
1 18.0366 10.9512 10.6621
1 18.8303 10.1575 10.6621
1 18.819 10.9472 9.87905
1 18.0321 10.155 9.86505
1 19.624 10.9512 10.6621
1 20.4177 10.1575 10.6621
1 20.4123 10.9559 9.87514
1 19.6138 10.1722 9.87076
1 21.2114 10.9512 10.6621
1 22.0051 10.1575 10.6621
1 22.0384 10.9519 9.88315
1 21.2196 10.1615 9.8777
1 22.7988 10.9512 10.6621
1 23.5925 10.1575 10.6621
1 23.6023 10.9508 9.85607
1 22.8081 10.1813 9.85596
1 24.3862 10.9512 10.6621
1 25.1799 10.1575 10.6621
1 25.1932 10.9504 9.88177
1 24.3867 10.174 9.87548
1 25.9736 10.9512 10.6621
1 26.7673 10.1575 10.6621
1 26.7806 10.9689 9.91555
1 25.9747 10.166 9.85785
1 27.561 10.9512 10.6621
1 28.3547 10.1575 10.6621
1 28.3489 10.9582 9.85359
1 27.5563 10.1667 9.86366
1 29.1484 10.9512 10.6621
1 29.9421 10.1575 10.6621
1 29.9407 10.9528 9.89258
1 29.1441 10.1453 9.88738
1 0.735818 10.9512 10.6621
1 1.52952 10.1575 10.6621
1 1.50638 10.9276 9.87632
1 0.704606 10.1667 9.88603
1 2.32322 10.9512 10.6621
1 3.11692 10.1575 10.6621
1 3.02769 10.9351 9.84226
1 2.31118 10.1422 9.83961
1 3.75 9.36379 10.6621
1 4.5437 8.57009 10.6621
1 4.54427 9.37727 9.86987
1 3.80867 8.57737 9.80517
1 5.3374 9.36379 10.6621
1 6.1311 8.57009 10.6621
1 6.1291 9.37177 9.86771
1 5.34758 8.58888 9.87294
1 6.9248 9.36379 10.6621
1 7.7185 8.57009 10.6621
1 7.72205 9.34962 9.86976
1 6.93892 8.57689 9.87367
1 8.5122 9.36379 10.6621
1 9.3059 8.57009 10.6621
1 9.29863 9.35144 9.89238
1 8.49698 8.55616 9.87194
1 10.0996 9.36379 10.6621
1 10.8933 8.57009 10.6621
1 10.8896 9.34576 9.87333
1 10.0765 8.56809 9.86653
1 11.687 9.36379 10.6621
1 12.4807 8.57009 10.6621
1 12.4754 9.34785 9.84937
1 11.6742 8.56868 9.8825
1 13.2744 9.36379 10.6621
1 14.0681 8.57009 10.6621
1 14.0584 9.36846 9.88398
1 13.2635 8.57695 9.88303
1 14.8618 9.36379 10.6621
1 15.6555 8.57009 10.6621
1 15.6646 9.32764 9.84744
1 14.8484 8.58283 9.86485
1 16.4492 9.36379 10.6621
1 17.2429 8.57009 10.6621
1 17.245 9.36704 9.84643
1 16.4477 8.56413 9.88115
1 18.0366 9.36379 10.6621
1 18.8303 8.57009 10.6621
1 18.8604 9.3663 9.87653
1 18.0293 8.57827 9.84664
1 19.624 9.36379 10.6621
1 20.4177 8.57009 10.6621
1 20.423 9.36965 9.87262
1 19.6259 8.57089 9.8835
1 21.2114 9.36379 10.6621
1 22.0051 8.57009 10.6621
1 22.0184 9.37303 9.88127
1 21.2151 8.58545 9.89403
1 22.7988 9.36379 10.6621
1 23.5925 8.57009 10.6621
1 23.5881 9.37563 9.87438
1 22.798 8.56429 9.88885
1 24.3862 9.36379 10.6621
1 25.1799 8.57009 10.6621
1 25.172 9.38046 9.86966
1 24.3823 8.57242 9.87051
1 25.9736 9.36379 10.6621
1 26.7673 8.57009 10.6621
1 26.7534 9.37988 9.87198
1 25.9633 8.55986 9.85837
1 27.561 9.36379 10.6621
1 28.3547 8.57009 10.6621
1 28.3385 9.37327 9.86575
1 27.5499 8.5971 9.87014
1 29.1484 9.36379 10.6621
1 29.9421 8.57009 10.6621
1 29.937 9.3402 9.90277
1 29.1436 8.55519 9.91004
1 0.735818 9.36379 10.6621
1 1.52952 8.57009 10.6621
1 1.51283 9.36853 9.84722
1 0.733929 8.57459 9.86735
1 2.32322 9.36379 10.6621
1 3.11692 8.57009 10.6621
1 3.03457 9.36039 9.79739
1 2.28705 8.56285 9.86277
1 3.75 7.77639 10.6621
1 4.5437 6.98268 10.6621
1 4.58145 7.77979 9.83741
1 3.80404 6.99288 9.81425
1 5.3374 7.77639 10.6621
1 6.1311 6.98268 10.6621
1 6.14833 7.75739 9.90151
1 5.36479 6.98177 9.85801
1 6.9248 7.77639 10.6621
1 7.7185 6.98268 10.6621
1 7.74076 7.76668 9.86388
1 6.93307 6.97181 9.88495
1 8.5122 7.77639 10.6621
1 9.3059 6.98268 10.6621
1 9.31987 7.77938 9.86785
1 8.51048 6.9904 9.88013
1 10.0996 7.77639 10.6621
1 10.8933 6.98268 10.6621
1 10.8938 7.78569 9.88859
1 10.0957 6.98264 9.87271
1 11.687 7.77639 10.6621
1 12.4807 6.98268 10.6621
1 12.4735 7.76675 9.88833
1 11.6807 6.98172 9.8617
1 13.2744 7.77639 10.6621
1 14.0681 6.98268 10.6621
1 14.0603 7.78383 9.88096
1 13.2371 6.9578 9.85745
1 14.8618 7.77639 10.6621
1 15.6555 6.98268 10.6621
1 15.6639 7.77247 9.85295
1 14.8632 6.97022 9.87921
1 16.4492 7.77639 10.6621
1 17.2429 6.98268 10.6621
1 17.227 7.78266 9.83728
1 16.4608 7.00348 9.87702
1 18.0366 7.77639 10.6621
1 18.8303 6.98268 10.6621
1 18.854 7.78409 9.85907
1 18.0379 6.98909 9.87321
1 19.624 7.77639 10.6621
1 20.4177 6.98268 10.6621
1 20.4129 7.78957 9.87785
1 19.6377 6.99548 9.87761
1 21.2114 7.77639 10.6621
1 22.0051 6.98268 10.6621
1 22.0063 7.76538 9.89282
1 21.2105 6.99972 9.89022
1 22.7988 7.77639 10.6621
1 23.5925 6.98268 10.6621
1 23.5902 7.78927 9.86805
1 22.7954 6.97306 9.86773
1 24.3862 7.77639 10.6621
1 25.1799 6.98268 10.6621
1 25.1949 7.78176 9.86067
1 24.425 6.98712 9.87197
1 25.9736 7.77639 10.6621
1 26.7673 6.98268 10.6621
1 26.7659 7.8004 9.8727
1 25.9829 6.97095 9.8604
1 27.561 7.77639 10.6621
1 28.3547 6.98268 10.6621
1 28.3375 7.78039 9.86561
1 27.549 6.99401 9.85588
1 29.1484 7.77639 10.6621
1 29.9421 6.98268 10.6621
1 29.9272 7.77641 9.87556
1 29.1453 6.98812 9.86235
1 0.735818 7.77639 10.6621
1 1.52952 6.98268 10.6621
1 1.50432 7.76475 9.85977
1 0.743349 7.00257 9.88339
1 2.32322 7.77639 10.6621
1 3.11692 6.98268 10.6621
1 3.05745 7.76893 9.84659
1 2.2966 7.01254 9.86305
1 3.75 6.18898 10.6621
1 4.5437 5.39528 10.6621
1 4.58077 6.21198 9.86855
1 3.79717 5.40372 9.84939
1 5.3374 6.18898 10.6621
1 6.1311 5.39528 10.6621
1 6.1499 6.19641 9.84787
1 5.33786 5.40542 9.89756
1 6.9248 6.18898 10.6621
1 7.7185 5.39528 10.6621
1 7.7003 6.17546 9.87039
1 6.93122 5.41162 9.88463
1 8.5122 6.18898 10.6621
1 9.3059 5.39528 10.6621
1 9.31517 6.18344 9.88736
1 8.49949 5.40632 9.89773
1 10.0996 6.18898 10.6621
1 10.8933 5.39528 10.6621
1 10.8738 6.16873 9.86448
1 10.1027 5.38614 9.85036
1 11.687 6.18898 10.6621
1 12.4807 5.39528 10.6621
1 12.5011 6.19457 9.88786
1 11.6908 5.38183 9.8496