9376
Atoms. Timestep: 4000000
1 0.1125 3.55271e-15 10.6428
1 0.906201 29.2063 10.6428
1 0.94111 29.9351 9.79489
1 0.205738 29.1863 9.79887
1 1.6999 3.55271e-15 10.6428
1 2.4936 29.2063 10.6428
1 2.51759 29.9223 9.80415
1 1.70726 29.1722 9.8744
1 3.2873 3.55271e-15 10.6428
1 4.081 29.2063 10.6428
1 4.10837 29.9085 9.79481
1 3.26351 29.1984 9.84311
1 4.8747 3.55271e-15 10.6428
1 5.6684 29.2063 10.6428
1 5.6798 29.9359 9.83869
1 4.90062 29.1921 9.84383
1 6.4621 3.55271e-15 10.6428
1 7.2558 29.2063 10.6428
1 7.26307 29.9285 9.80634
1 6.47333 29.1623 9.82389
1 8.04951 3.55271e-15 10.6428
1 8.84321 29.2063 10.6428
1 8.83566 29.9436 9.80603
1 8.03929 29.1606 9.84894
1 9.63691 3.55271e-15 10.6428
1 10.4306 29.2063 10.6428
1 10.4049 29.9335 9.79676
1 9.61603 29.1898 9.86599
1 11.2243 3.55271e-15 10.6428
1 12.018 29.2063 10.6428
1 12.0103 29.941 9.81522
1 11.1894 29.1839 9.85294
1 12.8117 3.55271e-15 10.6428
1 13.6054 29.2063 10.6428
1 13.6148 29.9518 9.81973
1 12.8187 29.193 9.84785
1 14.3991 3.55271e-15 10.6428
1 15.1928 29.2063 10.6428
1 15.2022 29.943 9.83898
1 14.412 29.1719 9.85008
1 15.9865 3.55271e-15 10.6428
1 16.7802 29.2063 10.6428
1 16.7768 29.9107 9.82039
1 15.9818 29.1498 9.80515
1 17.5739 3.55271e-15 10.6428
1 18.3676 29.2063 10.6428
1 18.3743 29.9248 9.82042
1 17.585 29.1631 9.84563
1 19.1613 3.55271e-15 10.6428
1 19.955 29.2063 10.6428
1 19.9477 29.9367 9.81684
1 19.1494 29.1817 9.82532
1 20.7487 3.55271e-15 10.6428
1 21.5424 29.2063 10.6428
1 21.5455 29.9326 9.82932
1 20.7618 29.1787 9.84409
1 22.3361 3.55271e-15 10.6428
1 23.1298 29.2063 10.6428
1 23.1241 29.9222 9.81829
1 22.342 29.1789 9.83767
1 23.9235 3.55271e-15 10.6428
1 24.7172 29.2063 10.6428
1 24.728 29.9286 9.80983
1 23.9344 29.1851 9.83888
1 25.5109 3.55271e-15 10.6428
1 26.3046 29.2063 10.6428
1 26.3058 29.9412 9.7997
1 25.4991 29.162 9.83287
1 27.0983 3.55271e-15 10.6428
1 27.892 29.2063 10.6428
1 27.8713 29.8999 9.81267
1 27.0858 29.1735 9.84014
1 28.6857 3.55271e-15 10.6428
1 29.4794 29.2063 10.6428
1 29.432 29.9384 9.78743
1 28.6552 29.1903 9.84073
1 0.1125 28.4126 10.6428
1 0.906201 27.6189 10.6428
1 0.934409 28.3881 9.86282
1 0.208831 27.5967 9.80497
1 1.6999 28.4126 10.6428
1 2.4936 27.6189 10.6428
1 2.50278 28.3917 9.85728
1 1.71494 27.628 9.85935
1 3.2873 28.4126 10.6428
1 4.081 27.6189 10.6428
1 4.08351 28.389 9.84539
1 3.31365 27.6191 9.84179
1 4.8747 28.4126 10.6428
1 5.6684 27.6189 10.6428
1 5.66936 28.391 9.87905
1 4.89189 27.5915 9.87047
1 6.4621 28.4126 10.6428
1 7.2558 27.6189 10.6428
1 7.24224 28.3981 9.84589
1 6.4621 27.6222 9.85877
1 8.04951 28.4126 10.6428
1 8.84321 27.6189 10.6428
1 8.84656 28.3977 9.84881
1 8.05744 27.6239 9.86042
1 9.63691 28.4126 10.6428
1 10.4306 27.6189 10.6428
1 10.4167 28.385 9.85457
1 9.65242 27.6216 9.83986
1 11.2243 28.4126 10.6428
1 12.018 27.6189 10.6428
1 12.0171 28.4116 9.8462
1 11.2371 27.5868 9.88523
1 12.8117 28.4126 10.6428
1 13.6054 27.6189 10.6428
1 13.5953 28.4034 9.86091
1 12.8023 27.5985 9.84628
1 14.3991 28.4126 10.6428
1 15.1928 27.6189 10.6428
1 15.1863 28.401 9.83573
1 14.4149 27.6086 9.85899
1 15.9865 28.4126 10.6428
1 16.7802 27.6189 10.6428
1 16.7649 28.4029 9.84376
1 16.003 27.6155 9.85194
1 17.5739 28.4126 10.6428
1 18.3676 27.6189 10.6428
1 18.3782 28.3815 9.84422
1 17.5752 27.5996 9.84939
1 19.1613 28.4126 10.6428
1 19.955 27.6189 10.6428
1 19.9547 28.4024 9.8287
1 19.1781 27.5772 9.85991
1 20.7487 28.4126 10.6428
1 21.5424 27.6189 10.6428
1 21.5342 28.3762 9.84521
1 20.7513 27.5911 9.86232
1 22.3361 28.4126 10.6428
1 23.1298 27.6189 10.6428
1 23.1347 28.3675 9.83588
1 22.329 27.6083 9.83685
1 23.9235 28.4126 10.6428
1 24.7172 27.6189 10.6428
1 24.7096 28.4115 9.84679
1 23.93 27.6128 9.84693
1 25.5109 28.4126 10.6428
1 26.3046 27.6189 10.6428
1 26.2874 28.394 9.88294
1 25.4989 27.6466 9.86134
1 27.0983 28.4126 10.6428
1 27.892 27.6189 10.6428
1 27.8912 28.4213 9.81118
1 27.0776 27.6301 9.83796
1 28.6857 28.4126 10.6428
1 29.4794 27.6189 10.6428
1 29.4267 28.3817 9.79807
1 28.6307 27.5929 9.82599
1 0.1125 26.8252 10.6428
1 0.906201 26.0315 10.6428
1 0.931577 26.8533 9.82485
1 0.168346 26.0153 9.82708
1 1.6999 26.8252 10.6428
1 2.4936 26.0315 10.6428
1 2.47227 26.8417 9.86652
1 1.70772 26.0598 9.84578
1 3.2873 26.8252 10.6428
1 4.081 26.0315 10.6428
1 4.09228 26.8217 9.87005
1 3.29967 26.0288 9.86018
1 4.8747 26.8252 10.6428
1 5.6684 26.0315 10.6428
1 5.70855 26.8259 9.84703
1 4.87448 26.015 9.82931
1 6.4621 26.8252 10.6428
1 7.2558 26.0315 10.6428
1 7.24825 26.8465 9.85371
1 6.44422 26.0392 9.83293
1 8.04951 26.8252 10.6428
1 8.84321 26.0315 10.6428
1 8.86384 26.826 9.83352
1 8.03476 26.042 9.83647
1 9.63691 26.8252 10.6428
1 10.4306 26.0315 10.6428
1 10.4281 26.8187 9.83511
1 9.65309 26.014 9.87065
1 11.2243 26.8252 10.6428
1 12.018 26.0315 10.6428
1 12.0149 26.8122 9.8673
1 11.23 26.0257 9.84377
1 12.8117 26.8252 10.6428
1 13.6054 26.0315 10.6428
1 13.595 26.8267 9.85885
1 12.8298 26.0063 9.86636
1 14.3991 26.8252 10.6428
1 15.1928 26.0315 10.6428
1 15.2023 26.8277 9.85043
1 14.4156 26.0377 9.84108
1 15.9865 26.8252 10.6428
1 16.7802 26.0315 10.6428
1 16.7955 26.8248 9.85451
1 16.005 26.0258 9.84006
1 17.5739 26.8252 10.6428
1 18.3676 26.0315 10.6428
1 18.3796 26.8013 9.85902
1 17.5907 25.9954 9.868
1 19.1613 26.8252 10.6428
1 19.955 26.0315 10.6428
1 19.9508 26.8155 9.85567
1 19.1545 26.0324 9.87158
1 20.7487 26.8252 10.6428
1 21.5424 26.0315 10.6428
1 21.5459 26.8146 9.83818
1 20.7743 26.0208 9.85143
1 22.3361 26.8252 10.6428
1 23.1298 26.0315 10.6428
1 23.1283 26.8021 9.87065
1 22.3382 26.0118 9.83594
1 23.9235 26.8252 10.6428
1 24.7172 26.0315 10.6428
1 24.6791 26.8153 9.87818
1 23.9202 26.0187 9.85894
1 25.5109 26.8252 10.6428
1 26.3046 26.0315 10.6428
1 26.2874 26.8149 9.85384
1 25.5065 26.0403 9.88861
1 27.0983 26.8252 10.6428
1 27.892 26.0315 10.6428
1 27.8731 26.8061 9.85937
1 27.0855 26.0421 9.8472
1 28.6857 26.8252 10.6428
1 29.4794 26.0315 10.6428
1 29.3993 26.8041 9.80803
1 28.6349 26.0334 9.86699
1 0.1125 25.2378 10.6428
1 0.906201 24.4441 10.6428
1 0.936953 25.2445 9.83941
1 0.165613 24.4212 9.81733
1 1.6999 25.2378 10.6428
1 2.4936 24.4441 10.6428
1 2.52227 25.2373 9.82853
1 1.73516 24.4312 9.84683
1 3.2873 25.2378 10.6428
1 4.081 24.4441 10.6428
1 4.09292 25.2616 9.84498
1 3.30352 24.4459 9.85322
1 4.8747 25.2378 10.6428
1 5.6684 24.4441 10.6428
1 5.66907 25.2449 9.86249
1 4.86511 24.4505 9.86905
1 6.4621 25.2378 10.6428
1 7.2558 24.4441 10.6428
1 7.25283 25.249 9.85668
1 6.46321 24.4411 9.86438
1 8.04951 25.2378 10.6428
1 8.84321 24.4441 10.6428
1 8.85146 25.2483 9.84239
1 8.05085 24.4413 9.86152
1 9.63691 25.2378 10.6428
1 10.4306 24.4441 10.6428
1 10.4628 25.2273 9.85084
1 9.64611 24.4465 9.85445
1 11.2243 25.2378 10.6428
1 12.018 24.4441 10.6428
1 12.0227 25.2153 9.86146
1 11.2252 24.4321 9.86431
1 12.8117 25.2378 10.6428
1 13.6054 24.4441 10.6428
1 13.6256 25.2429 9.85484
1 12.8515 24.4077 9.85901
1 14.3991 25.2378 10.6428
1 15.1928 24.4441 10.6428
1 15.1925 25.241 9.85705
1 14.3747 24.4543 9.856
1 15.9865 25.2378 10.6428
1 16.7802 24.4441 10.6428
1 16.7562 25.2439 9.8536
1 15.9611 24.4452 9.84749
1 17.5739 25.2378 10.6428
1 18.3676 24.4441 10.6428
1 18.378 25.242 9.84595
1 17.5729 24.4559 9.84734
1 19.1613 25.2378 10.6428
1 19.955 24.4441 10.6428
1 19.9342 25.2256 9.8308
1 19.1411 24.4187 9.85152
1 20.7487 25.2378 10.6428
1 21.5424 24.4441 10.6428
1 21.52 25.2342 9.83372
1 20.7554 24.4564 9.84502
1 22.3361 25.2378 10.6428
1 23.1298 24.4441 10.6428
1 23.133 25.214 9.81867
1 22.3337 24.4299 9.8404
1 23.9235 25.2378 10.6428
1 24.7172 24.4441 10.6428
1 24.7124 25.2462 9.82804
1 23.9268 24.443 9.82393
1 25.5109 25.2378 10.6428
1 26.3046 24.4441 10.6428
1 26.292 25.2541 9.85716
1 25.5031 24.4613 9.83216
1 27.0983 25.2378 10.6428
1 27.892 24.4441 10.6428
1 27.8674 25.2421 9.85261
1 27.0965 24.436 9.85632
1 28.6857 25.2378 10.6428
1 29.4794 24.4441 10.6428
1 29.3927 25.2304 9.81228
1 28.6484 24.4318 9.83514
1 0.1125 23.6504 10.6428
1 0.906201 22.8567 10.6428
1 0.932502 23.6522 9.86184
1 0.179858 22.8683 9.82356
1 1.6999 23.6504 10.6428
1 2.4936 22.8567 10.6428
1 2.52302 23.637 9.85241
1 1.70551 22.8624 9.86305
1 3.2873 23.6504 10.6428
1 4.081 22.8567 10.6428
1 4.08397 23.6576 9.84529
1 3.30338 22.8528 9.82688
1 4.8747 23.6504 10.6428
1 5.6684 22.8567 10.6428
1 5.64411 23.67 9.87447
1 4.87902 22.8453 9.8423
1 6.4621 23.6504 10.6428
1 7.2558 22.8567 10.6428
1 7.22297 23.6487 9.84909
1 6.48061 22.8584 9.85384
1 8.04951 23.6504 10.6428
1 8.84321 22.8567 10.6428
1 8.86163 23.6405 9.85666
1 8.06076 22.8775 9.83131
1 9.63691 23.6504 10.6428
1 10.4306 22.8567 10.6428
1 10.4334 23.6371 9.85466
1 9.62959 22.8713 9.83164
1 11.2243 23.6504 10.6428
1 12.018 22.8567 10.6428
1 12.0248 23.6595 9.86038
1 11.2147 22.8514 9.86956
1 12.8117 23.6504 10.6428
1 13.6054 22.8567 10.6428
1 13.6393 23.634 9.83951
1 12.817 22.8543 9.84962
1 14.3991 23.6504 10.6428
1 15.1928 22.8567 10.6428
1 15.1874 23.6617 9.87369
1 14.3987 22.8391 9.84657
1 15.9865 23.6504 10.6428
1 16.7802 22.8567 10.6428
1 16.764 23.6576 9.83455
1 15.9809 22.8491 9.85744
1 17.5739 23.6504 10.6428
1 18.3676 22.8567 10.6428
1 18.3548 23.6406 9.86222
1 17.5405 22.8628 9.84552
1 19.1613 23.6504 10.6428
1 19.955 22.8567 10.6428
1 19.9521 23.6523 9.82968
1 19.1572 22.842 9.85672
1 20.7487 23.6504 10.6428
1 21.5424 22.8567 10.6428
1 21.5525 23.6463 9.8513
1 20.7336 22.8498 9.86086
1 22.3361 23.6504 10.6428
1 23.1298 22.8567 10.6428
1 23.1555 23.6636 9.83832
1 22.3229 22.8481 9.83745
1 23.9235 23.6504 10.6428
1 24.7172 22.8567 10.6428
1 24.7057 23.6563 9.83826
1 23.937 22.8677 9.86114
1 25.5109 23.6504 10.6428
1 26.3046 22.8567 10.6428
1 26.2886 23.6485 9.83916
1 25.4936 22.8566 9.85952
1 27.0983 23.6504 10.6428
1 27.892 22.8567 10.6428
1 27.8613 23.6597 9.832
1 27.0882 22.8526 9.87516
1 28.6857 23.6504 10.6428
1 29.4794 22.8567 10.6428
1 29.4153 23.6395 9.83281
1 28.6598 22.8506 9.88018
1 0.1125 22.063 10.6428
1 0.906201 21.2693 10.6428
1 0.931571 22.049 9.84907
1 0.168813 21.276 9.80928
1 1.6999 22.063 10.6428
1 2.4936 21.2693 10.6428
1 2.49619 22.0832 9.86901
1 1.72785 21.2784 9.82227
1 3.2873 22.063 10.6428
1 4.081 21.2693 10.6428
1 4.09069 22.0652 9.87518
1 3.29191 21.2485 9.82596
1 4.8747 22.063 10.6428
1 5.6684 21.2693 10.6428
1 5.65824 22.0657 9.86305
1 4.88472 21.2623 9.87917
1 6.4621 22.063 10.6428
1 7.2558 21.2693 10.6428
1 7.27891 22.0588 9.86965
1 6.43985 21.2589 9.86798
1 8.04951 22.063 10.6428
1 8.84321 21.2693 10.6428
1 8.86544 22.0622 9.84585
1 8.07271 21.2499 9.8091
1 9.63691 22.063 10.6428
1 10.4306 21.2693 10.6428
1 10.4056 22.0566 9.84413
1 9.64703 21.2635 9.84953
1 11.2243 22.063 10.6428
1 12.018 21.2693 10.6428
1 11.999 22.0696 9.87133
1 11.2091 21.2444 9.85049
1 12.8117 22.063 10.6428
1 13.6054 21.2693 10.6428
1 13.621 22.0693 9.82143
1 12.8189 21.2772 9.87978
1 14.3991 22.063 10.6428
1 15.1928 21.2693 10.6428
1 15.2062 22.0432 9.83396
1 14.3884 21.2778 9.85167
1 15.9865 22.063 10.6428
1 16.7802 21.2693 10.6428
1 16.7592 22.0653 9.86312
1 15.998 21.2681 9.84914
1 17.5739 22.063 10.6428
1 18.3676 21.2693 10.6428
1 18.3713 22.0622 9.85409
1 17.5781 21.2579 9.86121
1 19.1613 22.063 10.6428
1 19.955 21.2693 10.6428
1 19.9643 22.0571 9.86373
1 19.1397 21.2583 9.84581
1 20.7487 22.063 10.6428
1 21.5424 21.2693 10.6428
1 21.5327 22.0633 9.83223
1 20.7359 21.235 9.8472
1 22.3361 22.063 10.6428
1 23.1298 21.2693 10.6428
1 23.1285 22.0767 9.85438
1 22.3479 21.2896 9.85224
1 23.9235 22.063 10.6428
1 24.7172 21.2693 10.6428
1 24.699 22.0562 9.85766
1 23.9387 21.3006 9.85999
1 25.5109 22.063 10.6428
1 26.3046 21.2693 10.6428
1 26.3038 22.0498 9.83833
1 25.4921 21.2497 9.84092
1 27.0983 22.063 10.6428
1 27.892 21.2693 10.6428
1 27.881 22.0524 9.84748
1 27.0615 21.2577 9.85808
1 28.6857 22.063 10.6428
1 29.4794 21.2693 10.6428
1 29.404 22.0518 9.81265
1 28.6633 21.2659 9.86266
1 0.1125 20.4756 10.6428
1 0.906201 19.6819 10.6428
1 0.917277 20.4818 9.84964
1 0.172977 19.7031 9.81471
1 1.6999 20.4756 10.6428
1 2.4936 19.6819 10.6428
1 2.51009 20.4534 9.83117
1 1.70601 19.6658 9.83049
1 3.2873 20.4756 10.6428
1 4.081 19.6819 10.6428
1 4.08978 20.4528 9.85657
1 3.32454 19.6695 9.86051
1 4.8747 20.4756 10.6428
1 5.6684 19.6819 10.6428
1 5.67362 20.4606 9.85047
1 4.88475 19.6873 9.82949
1 6.4621 20.4756 10.6428
1 7.2558 19.6819 10.6428
1 7.23762 20.4585 9.85613
1 6.46657 19.6828 9.84911
1 8.04951 20.4756 10.6428
1 8.84321 19.6819 10.6428
1 8.88276 20.4735 9.85974
1 8.03998 19.689 9.87237
1 9.63691 20.4756 10.6428
1 10.4306 19.6819 10.6428
1 10.4404 20.4707 9.84631
1 9.64417 19.6808 9.83788
1 11.2243 20.4756 10.6428
1 12.018 19.6819 10.6428
1 12.0136 20.4775 9.86594
1 11.2404 19.6897 9.86114
1 12.8117 20.4756 10.6428
1 13.6054 19.6819 10.6428
1 13.6146 20.4731 9.83843
1 12.8014 19.6926 9.84808
1 14.3991 20.4756 10.6428
1 15.1928 19.6819 10.6428
1 15.2028 20.4916 9.84118
1 14.3852 19.6964 9.84805
1 15.9865 20.4756 10.6428
1 16.7802 19.6819 10.6428
1 16.7837 20.4679 9.83168
1 15.9832 19.6587 9.85261
1 17.5739 20.4756 10.6428
1 18.3676 19.6819 10.6428
1 18.3875 20.4574 9.84791
1 17.5731 19.6752 9.84681
1 19.1613 20.4756 10.6428
1 19.955 19.6819 10.6428
1 19.9454 20.4807 9.86164
1 19.1642 19.6776 9.84408
1 20.7487 20.4756 10.6428
1 21.5424 19.6819 10.6428
1 21.5609 20.4671 9.85093
1 20.7303 19.697 9.84757
1 22.3361 20.4756 10.6428
1 23.1298 19.6819 10.6428
1 23.12 20.4699 9.83965
1 22.3314 19.7049 9.8328
1 23.9235 20.4756 10.6428
1 24.7172 19.6819 10.6428
1 24.7147 20.4958 9.8563
1 23.9111 19.7022 9.8438
1 25.5109 20.4756 10.6428
1 26.3046 19.6819 10.6428
1 26.282 20.4617 9.85049
1 25.4862 19.6634 9.87431
1 27.0983 20.4756 10.6428
1 27.892 19.6819 10.6428
1 27.8641 20.4879 9.84445
1 27.0631 19.699 9.84797
1 28.6857 20.4756 10.6428
1 29.4794 19.6819 10.6428
1 29.3922 20.4779 9.82802
1 28.6607 19.6775 9.84092
1 0.1125 18.8882 10.6428
1 0.906201 18.0945 10.6428
1 0.92645 18.8986 9.83249
1 0.167305 18.1058 9.803
1 1.6999 18.8882 10.6428
1 2.4936 18.0945 10.6428
1 2.51528 18.8884 9.84777
1 1.72528 18.1259 9.85034
1 3.2873 18.8882 10.6428
1 4.081 18.0945 10.6428
1 4.08491 18.8868 9.86037
1 3.29473 18.1154 9.85719
1 4.8747 18.8882 10.6428
1 5.6684 18.0945 10.6428
1 5.67041 18.8956 9.85556
1 4.88485 18.0963 9.83953
1 6.4621 18.8882 10.6428
1 7.2558 18.0945 10.6428
1 7.25049 18.9003 9.85314
1 6.46482 18.1164 9.83963
1 8.04951 18.8882 10.6428
1 8.84321 18.0945 10.6428
1 8.83339 18.8861 9.87336
1 8.05774 18.0892 9.85431
1 9.63691 18.8882 10.6428
1 10.4306 18.0945 10.6428
1 10.4273 18.8999 9.86586
1 9.66414 18.1159 9.84312
1 11.2243 18.8882 10.6428
1 12.018 18.0945 10.6428
1 12.0297 18.8716 9.85861
1 11.2482 18.1081 9.86367
1 12.8117 18.8882 10.6428
1 13.6054 18.0945 10.6428
1 13.6163 18.8966 9.82667
1 12.8087 18.0895 9.847
1 14.3991 18.8882 10.6428
1 15.1928 18.0945 10.6428
1 15.2118 18.8799 9.83242
1 14.3963 18.0715 9.84702
1 15.9865 18.8882 10.6428
1 16.7802 18.0945 10.6428
1 16.7919 18.8663 9.84164
1 15.9944 18.0994 9.81056
1 17.5739 18.8882 10.6428
1 18.3676 18.0945 10.6428
1 18.3717 18.8856 9.82302
1 17.573 18.1201 9.82842
1 19.1613 18.8882 10.6428
1 19.955 18.0945 10.6428
1 19.9477 18.8891 9.87617
1 19.1534 18.0774 9.86488
1 20.7487 18.8882 10.6428
1 21.5424 18.0945 10.6428
1 21.5282 18.8907 9.83872
1 20.7452 18.0906 9.84833
1 22.3361 18.8882 10.6428
1 23.1298 18.0945 10.6428
1 23.1227 18.8788 9.84338
1 22.3078 18.0879 9.84787
1 23.9235 18.8882 10.6428
1 24.7172 18.0945 10.6428
1 24.7164 18.8929 9.82803
1 23.9073 18.0941 9.84605
1 25.5109 18.8882 10.6428
1 26.3046 18.0945 10.6428
1 26.295 18.9107 9.85654
1 25.4931 18.0872 9.84134
1 27.0983 18.8882 10.6428
1 27.892 18.0945 10.6428
1 27.8729 18.8935 9.84514
1 27.0892 18.1062 9.86242
1 28.6857 18.8882 10.6428
1 29.4794 18.0945 10.6428
1 29.4423 18.889 9.80122
1 28.6664 18.1033 9.87313
1 0.1125 17.3008 10.6428
1 0.906201 16.5071 10.6428
1 0.965227 17.3407 9.85906
1 0.183655 16.5298 9.82458
1 1.6999 17.3008 10.6428
1 2.4936 16.5071 10.6428
1 2.49598 17.3107 9.86752
1 1.71284 16.4864 9.85759
1 3.2873 17.3008 10.6428
1 4.081 16.5071 10.6428
1 4.0721 17.3062 9.86125
1 3.29579 16.5113 9.8558
1 4.8747 17.3008 10.6428
1 5.6684 16.5071 10.6428
1 5.69715 17.3275 9.86006
1 4.86096 16.5293 9.85408
1 6.4621 17.3008 10.6428
1 7.2558 16.5071 10.6428
1 7.24332 17.3248 9.84139
1 6.46214 16.5185 9.85303
1 8.04951 17.3008 10.6428
1 8.84321 16.5071 10.6428
1 8.85201 17.3142 9.8629
1 8.06081 16.5298 9.86637
1 9.63691 17.3008 10.6428
1 10.4306 16.5071 10.6428
1 10.4312 17.3216 9.86619
1 9.64571 16.5336 9.85587
1 11.2243 17.3008 10.6428
1 12.018 16.5071 10.6428
1 12.0223 17.3009 9.82337
1 11.211 16.5265 9.83589
1 12.8117 17.3008 10.6428
1 13.6054 16.5071 10.6428
1 13.5966 17.2993 9.86043
1 12.8268 16.4987 9.85044
1 14.3991 17.3008 10.6428
1 15.1928 16.5071 10.6428
1 15.2083 17.3337 9.85862
1 14.409 16.5121 9.85587
1 15.9865 17.3008 10.6428
1 16.7802 16.5071 10.6428
1 16.7755 17.2938 9.85278
1 15.9895 16.5093 9.83903
1 17.5739 17.3008 10.6428
1 18.3676 16.5071 10.6428
1 18.3599 17.2768 9.8467
1 17.5642 16.4877 9.84853
1 19.1613 17.3008 10.6428
1 19.955 16.5071 10.6428
1 19.9197 17.3074 9.84347
1 19.1792 16.5009 9.85511
1 20.7487 17.3008 10.6428
1 21.5424 16.5071 10.6428
1 21.5391 17.2944 9.84544
1 20.7522 16.5201 9.86741
1 22.3361 17.3008 10.6428
1 23.1298 16.5071 10.6428
1 23.1061 17.2829 9.84981
1 22.3352 16.4925 9.84591
1 23.9235 17.3008 10.6428
1 24.7172 16.5071 10.6428
1 24.7111 17.3084 9.86427
1 23.9176 16.5273 9.83667
1 25.5109 17.3008 10.6428
1 26.3046 16.5071 10.6428
1 26.286 17.2824 9.85399
1 25.5039 16.4936 9.85646
1 27.0983 17.3008 10.6428
1 27.892 16.5071 10.6428
1 27.881 17.3113 9.85884
1 27.1078 16.5129 9.84701
1 28.6857 17.3008 10.6428
1 29.4794 16.5071 10.6428
1 29.4256 17.2945 9.8108
1 28.6535 16.4988 9.85646
1 0.1125 15.7134 10.6428
1 0.906201 14.9197 10.6428
1 0.910679 15.7502 9.84797
1 0.16454 14.9348 9.80384
1 1.6999 15.7134 10.6428
1 2.4936 14.9197 10.6428
1 2.52972 15.6971 9.87937
1 1.71786 14.9301 9.85465
1 3.2873 15.7134 10.6428
1 4.081 14.9197 10.6428
1 4.09079 15.7211 9.83884
1 3.30035 14.9138 9.85921
1 4.8747 15.7134 10.6428
1 5.6684 14.9197 10.6428
1 5.66018 15.7093 9.84321
1 4.86813 14.9106 9.83144
1 6.4621 15.7134 10.6428
1 7.2558 14.9197 10.6428
1 7.23771 15.7441 9.8593
1 6.45999 14.91 9.87098
1 8.04951 15.7134 10.6428
1 8.84321 14.9197 10.6428
1 8.83629 15.7139 9.81516
1 8.04615 14.9143 9.82991
1 9.63691 15.7134 10.6428
1 10.4306 14.9197 10.6428
1 10.4023 15.7189 9.85524
1 9.64802 14.8995 9.84363
1 11.2243 15.7134 10.6428
1 12.018 14.9197 10.6428
1 11.998 15.7088 9.85783
1 11.2185 14.9285 9.86012
1 12.8117 15.7134 10.6428
1 13.6054 14.9197 10.6428
1 13.5957 15.7099 9.84184
1 12.8199 14.8884 9.86088
1 14.3991 15.7134 10.6428
1 15.1928 14.9197 10.6428
1 15.1936 15.6964 9.86226
1 14.3767 14.9229 9.85866
1 15.9865 15.7134 10.6428
1 16.7802 14.9197 10.6428
1 16.7869 15.7281 9.85942
1 15.9937 14.9507 9.87979
1 17.5739 15.7134 10.6428
1 18.3676 14.9197 10.6428
1 18.4001 15.7136 9.8434
1 17.5796 14.9226 9.86533
1 19.1613 15.7134 10.6428
1 19.955 14.9197 10.6428
1 19.9533 15.7155 9.85601
1 19.1651 14.912 9.87191
1 20.7487 15.7134 10.6428
1 21.5424 14.9197 10.6428
1 21.5436 15.7005 9.84375
1 20.7299 14.9098 9.84281
1 22.3361 15.7134 10.6428
1 23.1298 14.9197 10.6428
1 23.1227 15.7051 9.85453
1 22.3258 14.8994 9.86494
1 23.9235 15.7134 10.6428
1 24.7172 14.9197 10.6428
1 24.6948 15.6993 9.86458
1 23.9 14.9143 9.84773
1 25.5109 15.7134 10.6428
1 26.3046 14.9197 10.6428
1 26.281 15.7166 9.84297
1 25.52 14.91 9.84421
1 27.0983 15.7134 10.6428
1 27.892 14.9197 10.6428
1 27.9025 15.6851 9.83509
1 27.0987 14.9087 9.85982
1 28.6857 15.7134 10.6428
1 29.4794 14.9197 10.6428
1 29.4146 15.7099 9.80608
1 28.6643 14.9126 9.83027
1 0.1125 14.126 10.6428
1 0.906201 13.3323 10.6428
1 0.935239 14.1254 9.8274
1 0.162729 13.3363 9.82884
1 1.6999 14.126 10.6428
1 2.4936 13.3323 10.6428
1 2.50653 14.1306 9.85305
1 1.71328 13.3587 9.86218
1 3.2873 14.126 10.6428
1 4.081 13.3323 10.6428
1 4.07986 14.127 9.84915
1 3.28391 13.364 9.84031
1 4.8747 14.126 10.6428
1 5.6684 13.3323 10.6428
1 5.67707 14.1179 9.84905
1 4.88344 13.3441 9.85487
1 6.4621 14.126 10.6428
1 7.2558 13.3323 10.6428
1 7.23503 14.1072 9.84005
1 6.43935 13.3492 9.8335
1 8.04951 14.126 10.6428
1 8.84321 13.3323 10.6428
1 8.8393 14.1201 9.84022
1 8.04433 13.3281 9.86039
1 9.63691 14.126 10.6428
1 10.4306 13.3323 10.6428
1 10.4335 14.1148 9.82625
1 9.65953 13.3377 9.83817
1 11.2243 14.126 10.6428
1 12.018 13.3323 10.6428
1 11.9962 14.1399 9.84572
1 11.2054 13.3221 9.86776
1 12.8117 14.126 10.6428
1 13.6054 13.3323 10.6428
1 13.6062 14.1291 9.86189
1 12.8156 13.3446 9.85768
1 14.3991 14.126 10.6428
1 15.1928 13.3323 10.6428
1 15.2069 14.1185 9.84286
1 14.4214 13.3429 9.84364
1 15.9865 14.126 10.6428
1 16.7802 13.3323 10.6428
1 16.7609 14.129 9.85881
1 15.9872 13.3261 9.87759
1 17.5739 14.126 10.6428
1 18.3676 13.3323 10.6428
1 18.3568 14.1298 9.85155
1 17.55 13.3476 9.85833
1 19.1613 14.126 10.6428
1 19.955 13.3323 10.6428
1 19.9439 14.1113 9.87067
1 19.1584 13.3154 9.83694
1 20.7487 14.126 10.6428
1 21.5424 13.3323 10.6428
1 21.5436 14.1473 9.84686
1 20.753 13.3346 9.85175
1 22.3361 14.126 10.6428
1 23.1298 13.3323 10.6428
1 23.124 14.1391 9.86731
1 22.3333 13.3484 9.83954
1 23.9235 14.126 10.6428
1 24.7172 13.3323 10.6428
1 24.7431 14.1304 9.85319
1 23.9154 13.3533 9.82964
1 25.5109 14.126 10.6428
1 26.3046 13.3323 10.6428
1 26.3085 14.1171 9.82292
1 25.4758 13.3138 9.85083
1 27.0983 14.126 10.6428
1 27.892 13.3323 10.6428
1 27.8775 14.1099 9.84173
1 27.0934 13.3055 9.83784
1 28.6857 14.126 10.6428
1 29.4794 13.3323 10.6428
1 29.4064 14.1355 9.8186
1 28.651 13.3362 9.82863
1 0.1125 12.5386 10.6428
1 0.906201 11.7449 10.6428
1 0.93096 12.5227 9.84031
1 0.167395 11.7523 9.80627
1 1.6999 12.5386 10.6428
1 2.4936 11.7449 10.6428
1 2.52099 12.5382 9.83593
1 1.6987 11.7476 9.85711
1 3.2873 12.5386 10.6428
1 4.081 11.7449 10.6428
1 4.07332 12.5424 9.84109
1 3.29883 11.7326 9.86401
1 4.8747 12.5386 10.6428
1 5.6684 11.7449 10.6428
1 5.66041 12.5287 9.86634
1 4.87559 11.7332 9.86221
1 6.4621 12.5386 10.6428
1 7.2558 11.7449 10.6428
1 7.25968 12.5313 9.85528
1 6.45549 11.7412 9.84107
1 8.04951 12.5386 10.6428
1 8.84321 11.7449 10.6428
1 8.86079 12.539 9.83419
1 8.07162 11.7314 9.84344
1 9.63691 12.5386 10.6428
1 10.4306 11.7449 10.6428
1 10.4023 12.537 9.85592
1 9.65104 11.7472 9.85538
1 11.2243 12.5386 10.6428
1 12.018 11.7449 10.6428
1 12.0278 12.5243 9.86531
1 11.2154 11.7452 9.86431
1 12.8117 12.5386 10.6428
1 13.6054 11.7449 10.6428
1 13.6008 12.5452 9.84848
1 12.845 11.7309 9.83368
1 14.3991 12.5386 10.6428
1 15.1928 11.7449 10.6428
1 15.1914 12.5342 9.87223
1 14.4036 11.7303 9.86323
1 15.9865 12.5386 10.6428
1 16.7802 11.7449 10.6428
1 16.7931 12.5332 9.84515
1 15.9827 11.7261 9.87156
1 17.5739 12.5386 10.6428
1 18.3676 11.7449 10.6428
1 18.3754 12.5261 9.85014
1 17.5833 11.7483 9.85654
1 19.1613 12.5386 10.6428
1 19.955 11.7449 10.6428
1 19.9514 12.5316 9.83817
1 19.1733 11.7383 9.84993
1 20.7487 12.5386 10.6428
1 21.5424 11.7449 10.6428
1 21.5494 12.513 9.8536
1 20.759 11.7302 9.84462
1 22.3361 12.5386 10.6428
1 23.1298 11.7449 10.6428
1 23.0973 12.5484 9.85749
1 22.3515 11.7543 9.83628
1 23.9235 12.5386 10.6428
1 24.7172 11.7449 10.6428
1 24.6661 12.5503 9.85438
1 23.9145 11.7699 9.84534
1 25.5109 12.5386 10.6428
1 26.3046 11.7449 10.6428
1 26.2747 12.5443 9.83054
1 25.4896 11.7445 9.83677
1 27.0983 12.5386 10.6428
1 27.892 11.7449 10.6428
1 27.863 12.5299 9.8207
1 27.093 11.7691 9.84196
1 28.6857 12.5386 10.6428
1 29.4794 11.7449 10.6428
1 29.4116 12.5375 9.82012
1 28.6515 11.7773 9.84583
1 0.1125 10.9512 10.6428
1 0.906201 10.1575 10.6428
1 0.924513 10.9224 9.836
1 0.145229 10.1684 9.82018
1 1.6999 10.9512 10.6428
1 2.4936 10.1575 10.6428
1 2.48257 10.9344 9.86622
1 1.72337 10.1359 9.83648
1 3.2873 10.9512 10.6428
1 4.081 10.1575 10.6428
1 4.09603 10.9166 9.84999
1 3.27745 10.148 9.85606
1 4.8747 10.9512 10.6428
1 5.6684 10.1575 10.6428
1 5.6989 10.9446 9.85461
1 4.91376 10.1583 9.8702
1 6.4621 10.9512 10.6428
1 7.2558 10.1575 10.6428
1 7.25842 10.9232 9.85948
1 6.44767 10.1432 9.83353
1 8.04951 10.9512 10.6428
1 8.84321 10.1575 10.6428
1 8.83028 10.9355 9.84803
1 8.04665 10.1444 9.83193
1 9.63691 10.9512 10.6428
1 10.4306 10.1575 10.6428
1 10.4322 10.9631 9.867
1 9.64566 10.1742 9.83705
1 11.2243 10.9512 10.6428
1 12.018 10.1575 10.6428
1 12.0173 10.9376 9.82624
1 11.2171 10.13 9.84021
1 12.8117 10.9512 10.6428
1 13.6054 10.1575 10.6428
1 13.6102 10.952 9.85083
1 12.8033 10.1721 9.83392
1 14.3991 10.9512 10.6428
1 15.1928 10.1575 10.6428
1 15.1794 10.9421 9.84891
1 14.3849 10.1407 9.85504
1 15.9865 10.9512 10.6428
1 16.7802 10.1575 10.6428
1 16.7949 10.9554 9.86025
1 15.9976 10.1434 9.82789
1 17.5739 10.9512 10.6428
1 18.3676 10.1575 10.6428
1 18.3578 10.9543 9.86133
1 17.5842 10.1603 9.84078
1 19.1613 10.9512 10.6428
1 19.955 10.1575 10.6428
1 19.9517 10.9541 9.85907
1 19.1616 10.1686 9.85492
1 20.7487 10.9512 10.6428
1 21.5424 10.1575 10.6428
1 21.5699 10.9579 9.86238
1 20.7443 10.1734 9.85109
1 22.3361 10.9512 10.6428
1 23.1298 10.1575 10.6428
1 23.1273 10.9638 9.84507
1 22.3259 10.1812 9.84932
1 23.9235 10.9512 10.6428
1 24.7172 10.1575 10.6428
1 24.7137 10.9601 9.87674
1 23.9276 10.1776 9.85992
1 25.5109 10.9512 10.6428
1 26.3046 10.1575 10.6428
1 26.3002 10.9718 9.87657
1 25.498 10.1668 9.8404
1 27.0983 10.9512 10.6428
1 27.892 10.1575 10.6428
1 27.8727 10.9536 9.83344
1 27.0966 10.1661 9.83407
1 28.6857 10.9512 10.6428
1 29.4794 10.1575 10.6428
1 29.4178 10.9496 9.8248
1 28.6493 10.1454 9.84629
1 0.1125 9.36379 10.6428
1 0.906201 8.57009 10.6428
1 0.932045 9.37233 9.81767
1 0.184951 8.56464 9.80476
1 1.6999 9.36379 10.6428
1 2.4936 8.57009 10.6428
1 2.50094 9.34631 9.82134
1 1.69672 8.55794 9.85801
1 3.2873 9.36379 10.6428
1 4.081 8.57009 10.6428
1 4.0717 9.36651 9.84014
1 3.29523 8.56939 9.83318
1 4.8747 9.36379 10.6428
1 5.6684 8.57009 10.6428
1 5.6631 9.37329 9.85604
1 4.88962 8.57848 9.86803
1 6.4621 9.36379 10.6428
1 7.2558 8.57009 10.6428
1 7.25275 9.35331 9.84388
1 6.46975 8.56984 9.84192
1 8.04951 9.36379 10.6428
1 8.84321 8.57009 10.6428
1 8.82789 9.36282 9.85138
1 8.02882 8.54686 9.83209
1 9.63691 9.36379 10.6428
1 10.4306 8.57009 10.6428
1 10.4315 9.34393 9.85332
1 9.62635 8.56781 9.8323
1 11.2243 9.36379 10.6428
1 12.018 8.57009 10.6428
1 12.0177 9.35382 9.83699
1 11.2039 8.59627 9.86534
1 12.8117 9.36379 10.6428
1 13.6054 8.57009 10.6428
1 13.6004 9.36126 9.87602
1 12.8084 8.59287 9.86891
1 14.3991 9.36379 10.6428
1 15.1928 8.57009 10.6428
1 15.2243 9.32593 9.84305
1 14.3946 8.57573 9.85629
1 15.9865 9.36379 10.6428
1 16.7802 8.57009 10.6428
1 16.7706 9.36455 9.84855
1 15.9931 8.55959 9.87274
1 17.5739 9.36379 10.6428
1 18.3676 8.57009 10.6428
1 18.4043 9.36419 9.85528
1 17.5766 8.5783 9.82864
1 19.1613 9.36379 10.6428
1 19.955 8.57009 10.6428
1 19.9559 9.36971 9.86029
1 19.1635 8.5534 9.86556
1 20.7487 9.36379 10.6428
1 21.5424 8.57009 10.6428
1 21.5469 9.37607 9.85788
1 20.754 8.56828 9.86195
1 22.3361 9.36379 10.6428
1 23.1298 8.57009 10.6428
1 23.1271 9.37507 9.86099
1 22.329 8.57315 9.87169
1 23.9235 9.36379 10.6428
1 24.7172 8.57009 10.6428
1 24.6957 9.37346 9.86359
1 23.912 8.56728 9.8477
1 25.5109 9.36379 10.6428
1 26.3046 8.57009 10.6428
1 26.2887 9.37076 9.84592
1 25.4927 8.5608 9.84754
1 27.0983 9.36379 10.6428
1 27.892 8.57009 10.6428
1 27.8714 9.38131 9.85087
1 27.0758 8.59003 9.85484
1 28.6857 9.36379 10.6428
1 29.4794 8.57009 10.6428
1 29.414 9.33608 9.83891
1 28.6508 8.58103 9.87927
1 0.1125 7.77639 10.6428
1 0.906201 6.98268 10.6428
1 0.939832 7.77166 9.81967
1 0.194985 7.00555 9.8263
1 1.6999 7.77639 10.6428
1 2.4936 6.98268 10.6428
1 2.50812 7.76033 9.83482
1 1.71961 7.01225 9.84925
1 3.2873 7.77639 10.6428
1 4.081 6.98268 10.6428
1 4.10949 7.77055 9.85196
1 3.28648 6.99301 9.82685
1 4.8747 7.77639 10.6428
1 5.6684 6.98268 10.6428
1 5.69222 7.75814 9.86686
1 4.89506 6.98085 9.83909
1 6.4621 7.77639 10.6428
1 7.2558 6.98268 10.6428
1 7.27348 7.77293 9.83615
1 6.45076 6.97677 9.85107
1 8.04951 7.77639 10.6428
1 8.84321 6.98268 10.6428
1 8.85833 7.79059 9.83906
1 8.04457 6.9978 9.85182
1 9.63691 7.77639 10.6428
1 10.4306 6.98268 10.6428
1 10.4218 7.78778 9.85875
1 9.6492 6.98299 9.85269
1 11.2243 7.77639 10.6428
1 12.018 6.98268 10.6428
1 12.0055 7.77764 9.88372
1 11.2241 6.98408 9.8397
1 12.8117 7.77639 10.6428
1 13.6054 6.98268 10.6428
1 13.5939 7.7846 9.87017
1 12.777 6.95316 9.83227
1 14.3991 7.77639 10.6428
1 15.1928 6.98268 10.6428
1 15.1941 7.76859 9.83279
1 14.4011 6.98075 9.85907
1 15.9865 7.77639 10.6428
1 16.7802 6.98268 10.6428
1 16.7913 7.78256 9.81803
1 16.0076 6.99956 9.87013
1 17.5739 7.77639 10.6428
1 18.3676 6.98268 10.6428
1 18.3842 7.77485 9.8456
1 17.5665 6.98069 9.85448
1 19.1613 7.77639 10.6428
1 19.955 6.98268 10.6428
1 19.9603 7.78139 9.86138
1 19.1772 6.99131 9.85815
1 20.7487 7.77639 10.6428
1 21.5424 6.98268 10.6428
1 21.5404 7.75844 9.87576
1 20.7412 7.00254 9.85276
1 22.3361 7.77639 10.6428
1 23.1298 6.98268 10.6428
1 23.1209 7.79289 9.85608
1 22.3454 6.97022 9.85286
1 23.9235 7.77639 10.6428
1 24.7172 6.98268 10.6428
1 24.7176 7.77959 9.84467
1 23.9333 6.98938 9.84966
1 25.5109 7.77639 10.6428
1 26.3046 6.98268 10.6428
1 26.2852 7.79742 9.85052
1 25.5058 6.97047 9.84521
1 27.0983 7.77639 10.6428
1 27.892 6.98268 10.6428
1 27.861 7.78157 9.84605
1 27.0669 6.98967 9.84692
1 28.6857 7.77639 10.6428
1 29.4794 6.98268 10.6428
1 29.4168 7.78129 9.8272
1 28.6611 6.98779 9.84149
1 0.1125 6.18898 10.6428
1 0.906201 5.39528 10.6428
1 0.951598 6.1943 9.84343
1 0.174475 5.39444 9.82165
1 1.6999 6.18898 10.6428
1 2.4936 5.39528 10.6428
1 2.5148 6.16165 9.85336
1 1.70307 5.40689 9.86121
1 3.2873 6.18898 10.6428
1 4.081 5.39528 10.6428
1 4.10031 6.21144 9.85798
1 3.30212 5.40079 9.8605
1 4.8747 6.18898 10.6428
1 5.6684 5.39528 10.6428
1 5.67185 6.19269 9.81782
1 4.87753 5.39802 9.87745
1 6.4621 6.18898 10.6428
1 7.2558 5.39528 10.6428
1 7.22478 6.1869 9.86152
1 6.45756 5.41882 9.85226
1 8.04951 6.18898 10.6428
1 8.84321 5.39528 10.6428
1 8.86195 6.18177 9.86884
1 8.04616 5.40764 9.88638