LAMMPS (5 Jun 2019)
OMP_NUM_THREADS environment is not set. Defaulting to 1 thread. (src/comm.cpp:88)
  using 1 OpenMP thread(s) per MPI task
#--- Brush Variables---#
variable      f      index  2 1 0.5
variable      M      equal  $(v_f * 30)                 # The number of polymer chains on each brush
variable      M      equal  60                 
variable      N      string 30                 # The number of beads per chain
variable      xhi    equal  $(sqrt(v_f) * 20)                 # The width of the polymer Brush
variable      xhi    equal  28.284271247461902021                 
variable      yhi    equal  $(sqrt(v_f) * 20)                 # The length of the polymer Brush
variable      yhi    equal  28.284271247461902021                 
variable      wthick equal  3                  # The thickness of the walls wthick=1,2,3,4 gives 2,3,4,6 layers respectively

#--- Simulation Variables ---#
variable       Temp      index 1        #0.8 1 1.68                 #[Grest96]
variable       Tstep     equal 0.005                       # Timestep in Tau (default = 0.005)
variable       Nequil    equal 30000                       # Number of timesteps to equilibrate
variable       Ncomp     equal 70000                     # Number of timesteps to compress - until no more occilation of walls
variable       Nshear    equal 100000      #2000000                      # Number of timesteps to shear - use approx 4ns for 10m/s
variable       Nthermo   equal 1000                        # Number of timesteps between thermo data prints
variable       Ndump_e   equal 10000
variable       Ndump_c   equal 10000                      # Number of timesteps per dump file (compression)
variable       Ndump_s   equal 10000                       # Number of timesteps per dump file (shear)
variable       Wall_v    index 0.5   #0.001 0.01 0.1 0.2 0.4 0.6 0.8 1 1.2 1.4 1.6 1.8 2   # 0.005 0.05 0.1 0.5 1.5 0.001 0.003 0.2 0.0002 2                      # Wall velocity (A/fs) - equal to 10 m/s
variable       Pcomp     index 3 #3 4 5 8 10 1.50 0.5 0.05

label          sim
include        MDPBB.in
# This is an input script that creates a mono disperse polymer brush bilayer
# A coarse grained bead-spring model is used for the polymers which are end
# grafted to the surfaces of 2 opposing FCC walls at random sites.

#--- Initialization ---#

dimension     3
boundary      p p f
units         lj
atom_style    bond


#--- Moved to main.in ---#
#variable      M      equal  50                # The number of polymer chains on each brush
#variable      N      string 80                # The number of beads per chain
#variable      xhi    equal  15                # The width of the polymer Brush
#variable      yhi    equal  20                # The length of the polymer Brush
#variable      wthick equal  3                 # The thickness of the walls wthick=1,2,3,4 gives 2,3,4,6 layers respectively

variable      zhi    equal  $(1.1 * 2 * v_N + (2 * v_wthick))  # The initial height of the simulation box the value is such that no overlaps occur
variable      zhi    equal  72  
variable      z0     equal  $((v_zhi)/4 - (v_N)/30)          # This is the location at which to place the CoM of the molecule
variable      z0     equal  17          

print "The number of grafted chains = $(v_M)"
The number of grafted chains = 60
print "The number of beads per chain = $(v_N)"
The number of beads per chain = 30

variable      check  equal count(all)         # The number of atoms in the system
variable      ntwall equal count(twall)       # The number of atoms in the top wall
variable      nbwall equal count(bwall)       # The number of atoms in the bottom wall
variable      s equal 234897  #45335              # Seed for the RNG

print "zhi = ${zhi}"
zhi = 72

#--- Create the simulation box ---#

region        sbox block 0 ${xhi} 0 ${yhi} 0 ${zhi}
region        sbox block 0 28.2842712474619 0 ${yhi} 0 ${zhi}
region        sbox block 0 28.2842712474619 0 28.2842712474619 0 ${zhi}
region        sbox block 0 28.2842712474619 0 28.2842712474619 0 72
create_box    4 sbox bond/types 3 extra/bond/per/atom 12 extra/special/per/atom 2
Created orthogonal box = (0 0 0) to (28.2843 28.2843 72)
  1 by 1 by 1 MPI processor grid

mass          1 2.0                   # Wall atoms that are not grafted
mass          2 1.0                   # Grafted bead
mass          3 1.0                   # The rest of the beads on the chain
mass          4 2.0                   # Wall atoms that the chains are grafted to

bond_style    hybrid fene harmonic    # Finitely extensible linearly elastic bond between neighbouring beads
#bond_coeff    1 fene 30.0 1.5 0.0 0.0      # Values obtained from literature [Grest, Galushcko]
bond_coeff    1 fene 30.0 30.0 0.0 0.0
bond_coeff    2 fene 30.0 30.0 0.0 0.0       # This is the grafting bond between the polymer and the wall atom
special_bonds fene                    #
  0 = max # of 1-2 neighbors
  5 = max # of special neighbors
  special bonds CPU = 0.0002475 secs
pair_style	  lj/cut 1.122462         # LJ potential with rc=2^1/6
#pair_coeff	  * * 1.0 1.0             # LJ potential acts between all atoms
pair_coeff    1 1 0.0 0.0
pair_coeff    1 2 1.0 1.0
pair_coeff    1 3 1.0 1.0
pair_coeff    2 2 1.0 1.0
pair_coeff    2 3 1.0 1.0
pair_coeff    2 4 1.0 1.0
pair_coeff    3 3 1.0 1.0
pair_coeff    3 4 1.0 1.0
pair_coeff    4 4 0.0 0.0
neighbor      10 bin                  #
neigh_modify  one 4000

#--- Create and read the molecule file ---#
python        BSMolf input 1 $N format i file BSMolf.py
python        BSMolf input 1 30 format i file BSMolf.py
python        BSMolf invoke    # Call the python function with number of beads to write the mol file
molecule      bs     bsmol.txt     # Read the Mol file to define the polymer chain
Read molecule bs:
  30 atoms with max type 2
  29 bonds with max type 1
  0 angles with max type 0
  0 dihedrals with max type 0
  0 impropers with max type 0

#--- Define the FCC wall region ---#
region        wall  block 0 ${xhi} 0 ${yhi} 0 ${wthick}
region        wall  block 0 28.2842712474619 0 ${yhi} 0 ${wthick}
region        wall  block 0 28.2842712474619 0 28.2842712474619 0 ${wthick}
region        wall  block 0 28.2842712474619 0 28.2842712474619 0 3
lattice       fcc 1
Lattice spacing in x,y,z = 1.5874 1.5874 1.5874

#--- Create the Top Brush  (At the bottom then rotate 180 degrees to top) ---#

create_atoms  1 region wall
Created 2592 atoms
  create_atoms CPU = 0.0014573 secs
group         twall  region wall
2592 atoms in group twall
#group         tsurf  region wsurf

# A loop to insert the Chains into the sim box
variable      i loop $M                                   # Index to insert N total number of chains
variable      i loop 60                                   
label         loop                                        # Start of loop
variable      randni equal round(random(1,${ntwall},$s))  # Pick a random "top" wall atom
variable      randni equal round(random(1,2592,$s))  
variable      randni equal round(random(1,2592,234897))  
variable      randatomi equal ${randni}                   # This is to obtain an integer number for atom-id
variable      randatomi equal 1628                   
variable      randzi equal z[${randatomi}]                # Determine the z coordinate of the chosen atom
variable      randzi equal z[1628]                
# if the chosen atom is not a surface atom then restart the loop
if            "${randzi} < $(v_wthick - 0.7)" then "jump MDPBB.in loop"
set           atom ${randatomi} type 4                    # Set this grafted wall atom as a new type
set           atom 1628 type 4                    
  1 settings made for type
group         twg id ${randatomi}                         # Add this atom to a top-wall-grafted group
group         twg id 1628                         
1 atoms in group twg
variable      twgcount equal count(twg)
print         "twg contains ${twgcount}"
twg contains 1
print         "i = $(v_i)"                                # The index i should always be equal to the number of atom in twg
i = 1
variable      x0 equal x[${randatomi}]                    # Determine its x-coord
variable      x0 equal x[1628]                    
variable      y0 equal y[${randatomi}]                    # Determine its y-coord
variable      y0 equal y[1628]                    
variable      check0 equal ${check}                       # Count the number of atoms in the simulation
variable      check0 equal 2592                       
variable      b equal ${check}+1                          # The grafted bead id will be one higher after being inserted
variable      b equal 2592+1                          
if            "${twgcount} != $(v_i)" then "jump MDPBB.in loop"
# Otherwise insert the chain directly above the chosen wall atom pointing perpendicular to the wall
create_atoms  1 single ${x0} ${y0} ${z0} mol bs 24987 units box remap yes rotate 0 0 0 1
create_atoms  1 single 15.874010519682 ${y0} ${z0} mol bs 24987 units box remap yes rotate 0 0 0 1
create_atoms  1 single 15.874010519682 7.1433047338569 ${z0} mol bs 24987 units box remap yes rotate 0 0 0 1
create_atoms  1 single 15.874010519682 7.1433047338569 17 mol bs 24987 units box remap yes rotate 0 0 0 1
Created 30 atoms
  create_atoms CPU = 9.07e-05 secs
variable      check1 equal ${check}               # Count the new total number of atoms
variable      check1 equal 2622               
# Check that the molecule has indeed been inserted (This check is no longer an issue).
if            "${check1} != ${check0}" then "create_bonds  single/bond 2 ${randatomi} $b" "next i"
create_bonds  single/bond 2 ${randatomi} $b
create_bonds  single/bond 2 1628 $b
create_bonds  single/bond 2 1628 2593
  2 = max # of 1-2 neighbors
  5 = max # of special neighbors
  special bonds CPU = 0.0020352 secs
next i
jump MDPBB.in loop    # End of the loop
variable      randni equal round(random(1,${ntwall},$s))  # Pick a random "top" wall atom
variable      randni equal round(random(1,2592,$s))  
variable      randni equal round(random(1,2592,234897))  
variable      randatomi equal ${randni}                   # This is to obtain an integer number for atom-id
variable      randatomi equal 408                   
variable      randzi equal z[${randatomi}]                # Determine the z coordinate of the chosen atom
variable      randzi equal z[408]                
# if the chosen atom is not a surface atom then restart the loop
if            "${randzi} < $(v_wthick - 0.7)" then "jump MDPBB.in loop"
jump MDPBB.in loop
variable      randni equal round(random(1,${ntwall},$s))  # Pick a random "top" wall atom
variable      randni equal round(random(1,2592,$s))  
variable      randni equal round(random(1,2592,234897))  
variable      randatomi equal ${randni}                   # This is to obtain an integer number for atom-id
variable      randatomi equal 1958                   
variable      randzi equal z[${randatomi}]                # Determine the z coordinate of the chosen atom
variable      randzi equal z[1958]                
# if the chosen atom is not a surface atom then restart the loop
if            "${randzi} < $(v_wthick - 0.7)" then "jump MDPBB.in loop"
jump MDPBB.in loop
variable      randni equal round(random(1,${ntwall},$s))  # Pick a random "top" wall atom
variable      randni equal round(random(1,2592,$s))  
variable      randni equal round(random(1,2592,234897))  
variable      randatomi equal ${randni}                   # This is to obtain an integer number for atom-id
variable      randatomi equal 1976                   
variable      randzi equal z[${randatomi}]                # Determine the z coordinate of the chosen atom
variable      randzi equal z[1976]                
# if the chosen atom is not a surface atom then restart the loop
if            "${randzi} < $(v_wthick - 0.7)" then "jump MDPBB.in loop"
set           atom ${randatomi} type 4                    # Set this grafted wall atom as a new type
set           atom 1976 type 4                    
  1 settings made for type
group         twg id ${randatomi}                         # Add this atom to a top-wall-grafted group
group         twg id 1976                         
2 atoms in group twg
variable      twgcount equal count(twg)
print         "twg contains ${twgcount}"
twg contains 2
print         "i = $(v_i)"                                # The index i should always be equal to the number of atom in twg
i = 2
variable      x0 equal x[${randatomi}]                    # Determine its x-coord
variable      x0 equal x[1976]                    
variable      y0 equal y[${randatomi}]                    # Determine its y-coord
variable      y0 equal y[1976]                    
variable      check0 equal ${check}                       # Count the number of atoms in the simulation
variable      check0 equal 2622                       
variable      b equal ${check}+1                          # The grafted bead id will be one higher after being inserted
variable      b equal 2622+1                          
if            "${twgcount} != $(v_i)" then "jump MDPBB.in loop"
# Otherwise insert the chain directly above the chosen wall atom pointing perpendicular to the wall
create_atoms  1 single ${x0} ${y0} ${z0} mol bs 24987 units box remap yes rotate 0 0 0 1
create_atoms  1 single 11.1118073637774 ${y0} ${z0} mol bs 24987 units box remap yes rotate 0 0 0 1
create_atoms  1 single 11.1118073637774 15.0803099936979 ${z0} mol bs 24987 units box remap yes rotate 0 0 0 1
create_atoms  1 single 11.1118073637774 15.0803099936979 17 mol bs 24987 units box remap yes rotate 0 0 0 1
Created 30 atoms
  create_atoms CPU = 8.16e-05 secs
variable      check1 equal ${check}               # Count the new total number of atoms
variable      check1 equal 2652               
# Check that the molecule has indeed been inserted (This check is no longer an issue).
if            "${check1} != ${check0}" then "create_bonds  single/bond 2 ${randatomi} $b" "next i"
create_bonds  single/bond 2 ${randatomi} $b
create_bonds  single/bond 2 1976 $b
create_bonds  single/bond 2 1976 2623
  2 = max # of 1-2 neighbors
  5 = max # of special neighbors
  special bonds CPU = 0.0019942 secs
next i
jump MDPBB.in loop    # End of the loop
variable      randni equal round(random(1,${ntwall},$s))  # Pick a random "top" wall atom
variable      randni equal round(random(1,2592,$s))  
variable      randni equal round(random(1,2592,234897))  
variable      randatomi equal ${randni}                   # This is to obtain an integer number for atom-id
variable      randatomi equal 1883                   
variable      randzi equal z[${randatomi}]                # Determine the z coordinate of the chosen atom
variable      randzi equal z[1883]                
# if the chosen atom is not a surface atom then restart the loop
if            "${randzi} < $(v_wthick - 0.7)" then "jump MDPBB.in loop"
set           atom ${randatomi} type 4                    # Set this grafted wall atom as a new type
set           atom 1883 type 4                    
  1 settings made for type
group         twg id ${randatomi}                         # Add this atom to a top-wall-grafted group
group         twg id 1883                         
3 atoms in group twg
variable      twgcount equal count(twg)
print         "twg contains ${twgcount}"
twg contains 3
print         "i = $(v_i)"                                # The index i should always be equal to the number of atom in twg
i = 3
variable      x0 equal x[${randatomi}]                    # Determine its x-coord
variable      x0 equal x[1883]                    
variable      y0 equal y[${randatomi}]                    # Determine its y-coord
variable      y0 equal y[1883]                    
variable      check0 equal ${check}                       # Count the number of atoms in the simulation
variable      check0 equal 2652                       
variable      b equal ${check}+1                          # The grafted bead id will be one higher after being inserted
variable      b equal 2652+1                          
if            "${twgcount} != $(v_i)" then "jump MDPBB.in loop"
# Otherwise insert the chain directly above the chosen wall atom pointing perpendicular to the wall
create_atoms  1 single ${x0} ${y0} ${z0} mol bs 24987 units box remap yes rotate 0 0 0 1
create_atoms  1 single 3.9685026299205 ${y0} ${z0} mol bs 24987 units box remap yes rotate 0 0 0 1
create_atoms  1 single 3.9685026299205 12.6992084157456 ${z0} mol bs 24987 units box remap yes rotate 0 0 0 1
create_atoms  1 single 3.9685026299205 12.6992084157456 17 mol bs 24987 units box remap yes rotate 0 0 0 1
Created 30 atoms
  create_atoms CPU = 5.71e-05 secs
variable      check1 equal ${check}               # Count the new total number of atoms
variable      check1 equal 2682               
# Check that the molecule has indeed been inserted (This check is no longer an issue).
if            "${check1} != ${check0}" then "create_bonds  single/bond 2 ${randatomi} $b" "next i"
create_bonds  single/bond 2 ${randatomi} $b
create_bonds  single/bond 2 1883 $b
create_bonds  single/bond 2 1883 2653
  2 = max # of 1-2 neighbors
  5 = max # of special neighbors
  special bonds CPU = 0.0020484 secs
next i
jump MDPBB.in loop    # End of the loop
variable      randni equal round(random(1,${ntwall},$s))  # Pick a random "top" wall atom
variable      randni equal round(random(1,2592,$s))  
variable      randni equal round(random(1,2592,234897))  
variable      randatomi equal ${randni}                   # This is to obtain an integer number for atom-id
variable      randatomi equal 2554                   
variable      randzi equal z[${randatomi}]                # Determine the z coordinate of the chosen atom
variable      randzi equal z[2554]                
# if the chosen atom is not a surface atom then restart the loop
if            "${randzi} < $(v_wthick - 0.7)" then "jump MDPBB.in loop"
jump MDPBB.in loop
variable      randni equal round(random(1,${ntwall},$s))  # Pick a random "top" wall atom
variable      randni equal round(random(1,2592,$s))  
variable      randni equal round(random(1,2592,234897))  
variable      randatomi equal ${randni}                   # This is to obtain an integer number for atom-id
variable      randatomi equal 1232                   
variable      randzi equal z[${randatomi}]                # Determine the z coordinate of the chosen atom
variable      randzi equal z[1232]                
# if the chosen atom is not a surface atom then restart the loop
if            "${randzi} < $(v_wthick - 0.7)" then "jump MDPBB.in loop"
jump MDPBB.in loop
variable      randni equal round(random(1,${ntwall},$s))  # Pick a random "top" wall atom
variable      randni equal round(random(1,2592,$s))  
variable      randni equal round(random(1,2592,234897))  
variable      randatomi equal ${randni}                   # This is to obtain an integer number for atom-id
variable      randatomi equal 869                   
variable      randzi equal z[${randatomi}]                # Determine the z coordinate of the chosen atom
variable      randzi equal z[869]                
# if the chosen atom is not a surface atom then restart the loop
if            "${randzi} < $(v_wthick - 0.7)" then "jump MDPBB.in loop"
jump MDPBB.in loop
variable      randni equal round(random(1,${ntwall},$s))  # Pick a random "top" wall atom
variable      randni equal round(random(1,2592,$s))  
variable      randni equal round(random(1,2592,234897))  
variable      randatomi equal ${randni}                   # This is to obtain an integer number for atom-id
variable      randatomi equal 1122                   
variable      randzi equal z[${randatomi}]                # Determine the z coordinate of the chosen atom
variable      randzi equal z[1122]                
# if the chosen atom is not a surface atom then restart the loop
if            "${randzi} < $(v_wthick - 0.7)" then "jump MDPBB.in loop"
jump MDPBB.in loop
variable      randni equal round(random(1,${ntwall},$s))  # Pick a random "top" wall atom
variable      randni equal round(random(1,2592,$s))  
variable      randni equal round(random(1,2592,234897))  
variable      randatomi equal ${randni}                   # This is to obtain an integer number for atom-id
variable      randatomi equal 1876                   
variable      randzi equal z[${randatomi}]                # Determine the z coordinate of the chosen atom
variable      randzi equal z[1876]                
# if the chosen atom is not a surface atom then restart the loop
if            "${randzi} < $(v_wthick - 0.7)" then "jump MDPBB.in loop"
set           atom ${randatomi} type 4                    # Set this grafted wall atom as a new type
set           atom 1876 type 4                    
  1 settings made for type
group         twg id ${randatomi}                         # Add this atom to a top-wall-grafted group
group         twg id 1876                         
4 atoms in group twg
variable      twgcount equal count(twg)
print         "twg contains ${twgcount}"
twg contains 4
print         "i = $(v_i)"                                # The index i should always be equal to the number of atom in twg
i = 4
variable      x0 equal x[${randatomi}]                    # Determine its x-coord
variable      x0 equal x[1876]                    
variable      y0 equal y[${randatomi}]                    # Determine its y-coord
variable      y0 equal y[1876]                    
variable      check0 equal ${check}                       # Count the number of atoms in the simulation
variable      check0 equal 2682                       
variable      b equal ${check}+1                          # The grafted bead id will be one higher after being inserted
variable      b equal 2682+1                          
if            "${twgcount} != $(v_i)" then "jump MDPBB.in loop"
# Otherwise insert the chain directly above the chosen wall atom pointing perpendicular to the wall
create_atoms  1 single ${x0} ${y0} ${z0} mol bs 24987 units box remap yes rotate 0 0 0 1
create_atoms  1 single 0 ${y0} ${z0} mol bs 24987 units box remap yes rotate 0 0 0 1
create_atoms  1 single 0 13.4929089417297 ${z0} mol bs 24987 units box remap yes rotate 0 0 0 1
create_atoms  1 single 0 13.4929089417297 17 mol bs 24987 units box remap yes rotate 0 0 0 1
Created 30 atoms
  create_atoms CPU = 6.31e-05 secs
variable      check1 equal ${check}               # Count the new total number of atoms
variable      check1 equal 2712               
# Check that the molecule has indeed been inserted (This check is no longer an issue).
if            "${check1} != ${check0}" then "create_bonds  single/bond 2 ${randatomi} $b" "next i"
create_bonds  single/bond 2 ${randatomi} $b
create_bonds  single/bond 2 1876 $b
create_bonds  single/bond 2 1876 2683
  2 = max # of 1-2 neighbors
  5 = max # of special neighbors
  special bonds CPU = 0.0019733 secs
next i
jump MDPBB.in loop    # End of the loop
variable      randni equal round(random(1,${ntwall},$s))  # Pick a random "top" wall atom
variable      randni equal round(random(1,2592,$s))  
variable      randni equal round(random(1,2592,234897))  
variable      randatomi equal ${randni}                   # This is to obtain an integer number for atom-id
variable      randatomi equal 2321                   
variable      randzi equal z[${randatomi}]                # Determine the z coordinate of the chosen atom
variable      randzi equal z[2321]                
# if the chosen atom is not a surface atom then restart the loop
if            "${randzi} < $(v_wthick - 0.7)" then "jump MDPBB.in loop"
jump MDPBB.in loop
variable      randni equal round(random(1,${ntwall},$s))  # Pick a random "top" wall atom
variable      randni equal round(random(1,2592,$s))  
variable      randni equal round(random(1,2592,234897))  
variable      randatomi equal ${randni}                   # This is to obtain an integer number for atom-id
variable      randatomi equal 19                   
variable      randzi equal z[${randatomi}]                # Determine the z coordinate of the chosen atom
variable      randzi equal z[19]                
# if the chosen atom is not a surface atom then restart the loop
if            "${randzi} < $(v_wthick - 0.7)" then "jump MDPBB.in loop"
jump MDPBB.in loop
variable      randni equal round(random(1,${ntwall},$s))  # Pick a random "top" wall atom
variable      randni equal round(random(1,2592,$s))  
variable      randni equal round(random(1,2592,234897))  
variable      randatomi equal ${randni}                   # This is to obtain an integer number for atom-id
variable      randatomi equal 494                   
variable      randzi equal z[${randatomi}]                # Determine the z coordinate of the chosen atom
variable      randzi equal z[494]                
# if the chosen atom is not a surface atom then restart the loop
if            "${randzi} < $(v_wthick - 0.7)" then "jump MDPBB.in loop"
jump MDPBB.in loop
variable      randni equal round(random(1,${ntwall},$s))  # Pick a random "top" wall atom
variable      randni equal round(random(1,2592,$s))  
variable      randni equal round(random(1,2592,234897))  
variable      randatomi equal ${randni}                   # This is to obtain an integer number for atom-id
variable      randatomi equal 847                   
variable      randzi equal z[${randatomi}]                # Determine the z coordinate of the chosen atom
variable      randzi equal z[847]                
# if the chosen atom is not a surface atom then restart the loop
if            "${randzi} < $(v_wthick - 0.7)" then "jump MDPBB.in loop"
jump MDPBB.in loop
variable      randni equal round(random(1,${ntwall},$s))  # Pick a random "top" wall atom
variable      randni equal round(random(1,2592,$s))  
variable      randni equal round(random(1,2592,234897))  
variable      randatomi equal ${randni}                   # This is to obtain an integer number for atom-id
variable      randatomi equal 2100                   
variable      randzi equal z[${randatomi}]                # Determine the z coordinate of the chosen atom
variable      randzi equal z[2100]                
# if the chosen atom is not a surface atom then restart the loop
if            "${randzi} < $(v_wthick - 0.7)" then "jump MDPBB.in loop"
set           atom ${randatomi} type 4                    # Set this grafted wall atom as a new type
set           atom 2100 type 4                    
  1 settings made for type
group         twg id ${randatomi}                         # Add this atom to a top-wall-grafted group
group         twg id 2100                         
5 atoms in group twg
variable      twgcount equal count(twg)
print         "twg contains ${twgcount}"
twg contains 5
print         "i = $(v_i)"                                # The index i should always be equal to the number of atom in twg
i = 5
variable      x0 equal x[${randatomi}]                    # Determine its x-coord
variable      x0 equal x[2100]                    
variable      y0 equal y[${randatomi}]                    # Determine its y-coord
variable      y0 equal y[2100]                    
variable      check0 equal ${check}                       # Count the number of atoms in the simulation
variable      check0 equal 2712                       
variable      b equal ${check}+1                          # The grafted bead id will be one higher after being inserted
variable      b equal 2712+1                          
if            "${twgcount} != $(v_i)" then "jump MDPBB.in loop"
# Otherwise insert the chain directly above the chosen wall atom pointing perpendicular to the wall
create_atoms  1 single ${x0} ${y0} ${z0} mol bs 24987 units box remap yes rotate 0 0 0 1
create_atoms  1 single 3.1748021039364 ${y0} ${z0} mol bs 24987 units box remap yes rotate 0 0 0 1
create_atoms  1 single 3.1748021039364 18.2551120976343 ${z0} mol bs 24987 units box remap yes rotate 0 0 0 1
create_atoms  1 single 3.1748021039364 18.2551120976343 17 mol bs 24987 units box remap yes rotate 0 0 0 1
Created 30 atoms
  create_atoms CPU = 9.27e-05 secs
variable      check1 equal ${check}               # Count the new total number of atoms
variable      check1 equal 2742               
# Check that the molecule has indeed been inserted (This check is no longer an issue).
if            "${check1} != ${check0}" then "create_bonds  single/bond 2 ${randatomi} $b" "next i"
create_bonds  single/bond 2 ${randatomi} $b
create_bonds  single/bond 2 2100 $b
create_bonds  single/bond 2 2100 2713
  2 = max # of 1-2 neighbors
  5 = max # of special neighbors
  special bonds CPU = 0.0019843 secs
next i
jump MDPBB.in loop    # End of the loop
variable      randni equal round(random(1,${ntwall},$s))  # Pick a random "top" wall atom
variable      randni equal round(random(1,2592,$s))  
variable      randni equal round(random(1,2592,234897))  
variable      randatomi equal ${randni}                   # This is to obtain an integer number for atom-id
variable      randatomi equal 1839                   
variable      randzi equal z[${randatomi}]                # Determine the z coordinate of the chosen atom
variable      randzi equal z[1839]                
# if the chosen atom is not a surface atom then restart the loop
if            "${randzi} < $(v_wthick - 0.7)" then "jump MDPBB.in loop"
set           atom ${randatomi} type 4                    # Set this grafted wall atom as a new type
set           atom 1839 type 4                    
  1 settings made for type
group         twg id ${randatomi}                         # Add this atom to a top-wall-grafted group
group         twg id 1839                         
6 atoms in group twg
variable      twgcount equal count(twg)
print         "twg contains ${twgcount}"
twg contains 6
print         "i = $(v_i)"                                # The index i should always be equal to the number of atom in twg
i = 6
variable      x0 equal x[${randatomi}]                    # Determine its x-coord
variable      x0 equal x[1839]                    
variable      y0 equal y[${randatomi}]                    # Determine its y-coord
variable      y0 equal y[1839]                    
variable      check0 equal ${check}                       # Count the number of atoms in the simulation
variable      check0 equal 2742                       
variable      b equal ${check}+1                          # The grafted bead id will be one higher after being inserted
variable      b equal 2742+1                          
if            "${twgcount} != $(v_i)" then "jump MDPBB.in loop"
# Otherwise insert the chain directly above the chosen wall atom pointing perpendicular to the wall
create_atoms  1 single ${x0} ${y0} ${z0} mol bs 24987 units box remap yes rotate 0 0 0 1
create_atoms  1 single 15.0803099936979 ${y0} ${z0} mol bs 24987 units box remap yes rotate 0 0 0 1
create_atoms  1 single 15.0803099936979 11.1118073637774 ${z0} mol bs 24987 units box remap yes rotate 0 0 0 1
create_atoms  1 single 15.0803099936979 11.1118073637774 17 mol bs 24987 units box remap yes rotate 0 0 0 1
Created 30 atoms
  create_atoms CPU = 6.68e-05 secs
variable      check1 equal ${check}               # Count the new total number of atoms
variable      check1 equal 2772               
# Check that the molecule has indeed been inserted (This check is no longer an issue).
if            "${check1} != ${check0}" then "create_bonds  single/bond 2 ${randatomi} $b" "next i"
create_bonds  single/bond 2 ${randatomi} $b
create_bonds  single/bond 2 1839 $b
create_bonds  single/bond 2 1839 2743
  2 = max # of 1-2 neighbors
  5 = max # of special neighbors
  special bonds CPU = 0.002001 secs
next i
jump MDPBB.in loop    # End of the loop
variable      randni equal round(random(1,${ntwall},$s))  # Pick a random "top" wall atom
variable      randni equal round(random(1,2592,$s))  
variable      randni equal round(random(1,2592,234897))  
variable      randatomi equal ${randni}                   # This is to obtain an integer number for atom-id
variable      randatomi equal 1785                   
variable      randzi equal z[${randatomi}]                # Determine the z coordinate of the chosen atom
variable      randzi equal z[1785]                
# if the chosen atom is not a surface atom then restart the loop
if            "${randzi} < $(v_wthick - 0.7)" then "jump MDPBB.in loop"
jump MDPBB.in loop
variable      randni equal round(random(1,${ntwall},$s))  # Pick a random "top" wall atom
variable      randni equal round(random(1,2592,$s))  
variable      randni equal round(random(1,2592,234897))  
variable      randatomi equal ${randni}                   # This is to obtain an integer number for atom-id
variable      randatomi equal 1448                   
variable      randzi equal z[${randatomi}]                # Determine the z coordinate of the chosen atom
variable      randzi equal z[1448]                
# if the chosen atom is not a surface atom then restart the loop
if            "${randzi} < $(v_wthick - 0.7)" then "jump MDPBB.in loop"
set           atom ${randatomi} type 4                    # Set this grafted wall atom as a new type
set           atom 1448 type 4                    
  1 settings made for type
group         twg id ${randatomi}                         # Add this atom to a top-wall-grafted group
group         twg id 1448                         
7 atoms in group twg
variable      twgcount equal count(twg)
print         "twg contains ${twgcount}"
twg contains 7
print         "i = $(v_i)"                                # The index i should always be equal to the number of atom in twg
i = 7
variable      x0 equal x[${randatomi}]                    # Determine its x-coord
variable      x0 equal x[1448]                    
variable      y0 equal y[${randatomi}]                    # Determine its y-coord
variable      y0 equal y[1448]                    
variable      check0 equal ${check}                       # Count the number of atoms in the simulation
variable      check0 equal 2772                       
variable      b equal ${check}+1                          # The grafted bead id will be one higher after being inserted
variable      b equal 2772+1                          
if            "${twgcount} != $(v_i)" then "jump MDPBB.in loop"
# Otherwise insert the chain directly above the chosen wall atom pointing perpendicular to the wall
create_atoms  1 single ${x0} ${y0} ${z0} mol bs 24987 units box remap yes rotate 0 0 0 1
create_atoms  1 single 1.5874010519682 ${y0} ${z0} mol bs 24987 units box remap yes rotate 0 0 0 1
create_atoms  1 single 1.5874010519682 3.9685026299205 ${z0} mol bs 24987 units box remap yes rotate 0 0 0 1
create_atoms  1 single 1.5874010519682 3.9685026299205 17 mol bs 24987 units box remap yes rotate 0 0 0 1
Created 30 atoms
  create_atoms CPU = 6.18e-05 secs
variable      check1 equal ${check}               # Count the new total number of atoms
variable      check1 equal 2802               
# Check that the molecule has indeed been inserted (This check is no longer an issue).
if            "${check1} != ${check0}" then "create_bonds  single/bond 2 ${randatomi} $b" "next i"
create_bonds  single/bond 2 ${randatomi} $b
create_bonds  single/bond 2 1448 $b
create_bonds  single/bond 2 1448 2773
  2 = max # of 1-2 neighbors
  5 = max # of special neighbors
  special bonds CPU = 0.0021519 secs
next i
jump MDPBB.in loop    # End of the loop
variable      randni equal round(random(1,${ntwall},$s))  # Pick a random "top" wall atom
variable      randni equal round(random(1,2592,$s))  
variable      randni equal round(random(1,2592,234897))  
variable      randatomi equal ${randni}                   # This is to obtain an integer number for atom-id
variable      randatomi equal 2019                   
variable      randzi equal z[${randatomi}]                # Determine the z coordinate of the chosen atom
variable      randzi equal z[2019]                
# if the chosen atom is not a surface atom then restart the loop
if            "${randzi} < $(v_wthick - 0.7)" then "jump MDPBB.in loop"
set           atom ${randatomi} type 4                    # Set this grafted wall atom as a new type
set           atom 2019 type 4                    
  1 settings made for type
group         twg id ${randatomi}                         # Add this atom to a top-wall-grafted group
group         twg id 2019                         
8 atoms in group twg
variable      twgcount equal count(twg)
print         "twg contains ${twgcount}"
twg contains 8
print         "i = $(v_i)"                                # The index i should always be equal to the number of atom in twg
i = 8
variable      x0 equal x[${randatomi}]                    # Determine its x-coord
variable      x0 equal x[2019]                    
variable      y0 equal y[${randatomi}]                    # Determine its y-coord
variable      y0 equal y[2019]                    
variable      check0 equal ${check}                       # Count the number of atoms in the simulation
variable      check0 equal 2802                       
variable      b equal ${check}+1                          # The grafted bead id will be one higher after being inserted
variable      b equal 2802+1                          
if            "${twgcount} != $(v_i)" then "jump MDPBB.in loop"
# Otherwise insert the chain directly above the chosen wall atom pointing perpendicular to the wall
create_atoms  1 single ${x0} ${y0} ${z0} mol bs 24987 units box remap yes rotate 0 0 0 1
create_atoms  1 single 0.7937005259841 ${y0} ${z0} mol bs 24987 units box remap yes rotate 0 0 0 1
create_atoms  1 single 0.7937005259841 15.874010519682 ${z0} mol bs 24987 units box remap yes rotate 0 0 0 1
create_atoms  1 single 0.7937005259841 15.874010519682 17 mol bs 24987 units box remap yes rotate 0 0 0 1
Created 30 atoms
  create_atoms CPU = 7.85e-05 secs
variable      check1 equal ${check}               # Count the new total number of atoms
variable      check1 equal 2832               
# Check that the molecule has indeed been inserted (This check is no longer an issue).
if            "${check1} != ${check0}" then "create_bonds  single/bond 2 ${randatomi} $b" "next i"
create_bonds  single/bond 2 ${randatomi} $b
create_bonds  single/bond 2 2019 $b
create_bonds  single/bond 2 2019 2803
  2 = max # of 1-2 neighbors
  5 = max # of special neighbors
  special bonds CPU = 0.0033413 secs
next i
jump MDPBB.in loop    # End of the loop
variable      randni equal round(random(1,${ntwall},$s))  # Pick a random "top" wall atom
variable      randni equal round(random(1,2592,$s))  
variable      randni equal round(random(1,2592,234897))  
variable      randatomi equal ${randni}                   # This is to obtain an integer number for atom-id
variable      randatomi equal 1595                   
variable      randzi equal z[${randatomi}]                # Determine the z coordinate of the chosen atom
variable      randzi equal z[1595]                
# if the chosen atom is not a surface atom then restart the loop
if            "${randzi} < $(v_wthick - 0.7)" then "jump MDPBB.in loop"
set           atom ${randatomi} type 4                    # Set this grafted wall atom as a new type
set           atom 1595 type 4                    
  1 settings made for type
group         twg id ${randatomi}                         # Add this atom to a top-wall-grafted group
group         twg id 1595                         
9 atoms in group twg
variable      twgcount equal count(twg)
print         "twg contains ${twgcount}"
twg contains 9
print         "i = $(v_i)"                                # The index i should always be equal to the number of atom in twg
i = 9
variable      x0 equal x[${randatomi}]                    # Determine its x-coord
variable      x0 equal x[1595]                    
variable      y0 equal y[${randatomi}]                    # Determine its y-coord
variable      y0 equal y[1595]                    
variable      check0 equal ${check}                       # Count the number of atoms in the simulation
variable      check0 equal 2832                       
variable      b equal ${check}+1                          # The grafted bead id will be one higher after being inserted
variable      b equal 2832+1                          
if            "${twgcount} != $(v_i)" then "jump MDPBB.in loop"
# Otherwise insert the chain directly above the chosen wall atom pointing perpendicular to the wall
create_atoms  1 single ${x0} ${y0} ${z0} mol bs 24987 units box remap yes rotate 0 0 0 1
create_atoms  1 single 3.9685026299205 ${y0} ${z0} mol bs 24987 units box remap yes rotate 0 0 0 1
create_atoms  1 single 3.9685026299205 6.3496042078728 ${z0} mol bs 24987 units box remap yes rotate 0 0 0 1
create_atoms  1 single 3.9685026299205 6.3496042078728 17 mol bs 24987 units box remap yes rotate 0 0 0 1
Created 30 atoms
  create_atoms CPU = 6.44e-05 secs
variable      check1 equal ${check}               # Count the new total number of atoms
variable      check1 equal 2862               
# Check that the molecule has indeed been inserted (This check is no longer an issue).
if            "${check1} != ${check0}" then "create_bonds  single/bond 2 ${randatomi} $b" "next i"
create_bonds  single/bond 2 ${randatomi} $b
create_bonds  single/bond 2 1595 $b
create_bonds  single/bond 2 1595 2833
  2 = max # of 1-2 neighbors
  5 = max # of special neighbors
  special bonds CPU = 0.0019699 secs
next i
jump MDPBB.in loop    # End of the loop
variable      randni equal round(random(1,${ntwall},$s))  # Pick a random "top" wall atom
variable      randni equal round(random(1,2592,$s))  
variable      randni equal round(random(1,2592,234897))  
variable      randatomi equal ${randni}                   # This is to obtain an integer number for atom-id
variable      randatomi equal 1606                   
variable      randzi equal z[${randatomi}]                # Determine the z coordinate of the chosen atom
variable      randzi equal z[1606]                
# if the chosen atom is not a surface atom then restart the loop
if            "${randzi} < $(v_wthick - 0.7)" then "jump MDPBB.in loop"
jump MDPBB.in loop
variable      randni equal round(random(1,${ntwall},$s))  # Pick a random "top" wall atom
variable      randni equal round(random(1,2592,$s))  
variable      randni equal round(random(1,2592,234897))  
variable      randatomi equal ${randni}                   # This is to obtain an integer number for atom-id
variable      randatomi equal 311                   
variable      randzi equal z[${randatomi}]                # Determine the z coordinate of the chosen atom
variable      randzi equal z[311]                
# if the chosen atom is not a surface atom then restart the loop
if            "${randzi} < $(v_wthick - 0.7)" then "jump MDPBB.in loop"
jump MDPBB.in loop
variable      randni equal round(random(1,${ntwall},$s))  # Pick a random "top" wall atom
variable      randni equal round(random(1,2592,$s))  
variable      randni equal round(random(1,2592,234897))  
variable      randatomi equal ${randni}                   # This is to obtain an integer number for atom-id
variable      randatomi equal 2257                   
variable      randzi equal z[${randatomi}]                # Determine the z coordinate of the chosen atom
variable      randzi equal z[2257]                
# if the chosen atom is not a surface atom then restart the loop
if            "${randzi} < $(v_wthick - 0.7)" then "jump MDPBB.in loop"
jump MDPBB.in loop
variable      randni equal round(random(1,${ntwall},$s))  # Pick a random "top" wall atom
variable      randni equal round(random(1,2592,$s))  
variable      randni equal round(random(1,2592,234897))  
variable      randatomi equal ${randni}                   # This is to obtain an integer number for atom-id
variable      randatomi equal 1560                   
variable      randzi equal z[${randatomi}]                # Determine the z coordinate of the chosen atom
variable      randzi equal z[1560]                
# if the chosen atom is not a surface atom then restart the loop
if            "${randzi} < $(v_wthick - 0.7)" then "jump MDPBB.in loop"
set           atom ${randatomi} type 4                    # Set this grafted wall atom as a new type
set           atom 1560 type 4                    
  1 settings made for type
group         twg id ${randatomi}                         # Add this atom to a top-wall-grafted group
group         twg id 1560                         
10 atoms in group twg
variable      twgcount equal count(twg)
print         "twg contains ${twgcount}"
twg contains 10
print         "i = $(v_i)"                                # The index i should always be equal to the number of atom in twg
i = 10
variable      x0 equal x[${randatomi}]                    # Determine its x-coord
variable      x0 equal x[1560]                    
variable      y0 equal y[${randatomi}]                    # Determine its y-coord
variable      y0 equal y[1560]                    
variable      check0 equal ${check}                       # Count the number of atoms in the simulation
variable      check0 equal 2862                       
variable      b equal ${check}+1                          # The grafted bead id will be one higher after being inserted
variable      b equal 2862+1                          
if            "${twgcount} != $(v_i)" then "jump MDPBB.in loop"
# Otherwise insert the chain directly above the chosen wall atom pointing perpendicular to the wall
create_atoms  1 single ${x0} ${y0} ${z0} mol bs 24987 units box remap yes rotate 0 0 0 1
create_atoms  1 single 17.4614115716502 ${y0} ${z0} mol bs 24987 units box remap yes rotate 0 0 0 1
create_atoms  1 single 17.4614115716502 5.5559036818887 ${z0} mol bs 24987 units box remap yes rotate 0 0 0 1
create_atoms  1 single 17.4614115716502 5.5559036818887 17 mol bs 24987 units box remap yes rotate 0 0 0 1
Created 30 atoms
  create_atoms CPU = 6.84e-05 secs
variable      check1 equal ${check}               # Count the new total number of atoms
variable      check1 equal 2892               
# Check that the molecule has indeed been inserted (This check is no longer an issue).
if            "${check1} != ${check0}" then "create_bonds  single/bond 2 ${randatomi} $b" "next i"
create_bonds  single/bond 2 ${randatomi} $b
create_bonds  single/bond 2 1560 $b
create_bonds  single/bond 2 1560 2863
  2 = max # of 1-2 neighbors
  5 = max # of special neighbors
  special bonds CPU = 0.0021248 secs
next i
jump MDPBB.in loop    # End of the loop
variable      randni equal round(random(1,${ntwall},$s))  # Pick a random "top" wall atom
variable      randni equal round(random(1,2592,$s))  
variable      randni equal round(random(1,2592,234897))  
variable      randatomi equal ${randni}                   # This is to obtain an integer number for atom-id
variable      randatomi equal 2382                   
variable      randzi equal z[${randatomi}]                # Determine the z coordinate of the chosen atom
variable      randzi equal z[2382]                
# if the chosen atom is not a surface atom then restart the loop
if            "${randzi} < $(v_wthick - 0.7)" then "jump MDPBB.in loop"
jump MDPBB.in loop
variable      randni equal round(random(1,${ntwall},$s))  # Pick a random "top" wall atom
variable      randni equal round(random(1,2592,$s))  
variable      randni equal round(random(1,2592,234897))  
variable      randatomi equal ${randni}                   # This is to obtain an integer number for atom-id
variable      randatomi equal 1806                   
variable      randzi equal z[${randatomi}]                # Determine the z coordinate of the chosen atom
variable      randzi equal z[1806]                
# if the chosen atom is not a surface atom then restart the loop
if            "${randzi} < $(v_wthick - 0.7)" then "jump MDPBB.in loop"
jump MDPBB.in loop
variable      randni equal round(random(1,${ntwall},$s))  # Pick a random "top" wall atom
variable      randni equal round(random(1,2592,$s))  
variable      randni equal round(random(1,2592,234897))  
variable      randatomi equal ${randni}                   # This is to obtain an integer number for atom-id
variable      randatomi equal 2327                   
variable      randzi equal z[${randatomi}]                # Determine the z coordinate of the chosen atom
variable      randzi equal z[2327]                
# if the chosen atom is not a surface atom then restart the loop
if            "${randzi} < $(v_wthick - 0.7)" then "jump MDPBB.in loop"
set           atom ${randatomi} type 4                    # Set this grafted wall atom as a new type
set           atom 2327 type 4                    
  1 settings made for type
group         twg id ${randatomi}                         # Add this atom to a top-wall-grafted group
group         twg id 2327                         
11 atoms in group twg
variable      twgcount equal count(twg)
print         "twg contains ${twgcount}"
twg contains 11
print         "i = $(v_i)"                                # The index i should always be equal to the number of atom in twg
i = 11
variable      x0 equal x[${randatomi}]                    # Determine its x-coord
variable      x0 equal x[2327]                    
variable      y0 equal y[${randatomi}]                    # Determine its y-coord
variable      y0 equal y[2327]                    
variable      check0 equal ${check}                       # Count the number of atoms in the simulation
variable      check0 equal 2892                       
variable      b equal ${check}+1                          # The grafted bead id will be one higher after being inserted
variable      b equal 2892+1                          
if            "${twgcount} != $(v_i)" then "jump MDPBB.in loop"
# Otherwise insert the chain directly above the chosen wall atom pointing perpendicular to the wall
create_atoms  1 single ${x0} ${y0} ${z0} mol bs 24987 units box remap yes rotate 0 0 0 1
create_atoms  1 single 8.7307057858251 ${y0} ${z0} mol bs 24987 units box remap yes rotate 0 0 0 1
create_atoms  1 single 8.7307057858251 22.2236147275548 ${z0} mol bs 24987 units box remap yes rotate 0 0 0 1
create_atoms  1 single 8.7307057858251 22.2236147275548 17 mol bs 24987 units box remap yes rotate 0 0 0 1
Created 30 atoms
  create_atoms CPU = 9.21e-05 secs
variable      check1 equal ${check}               # Count the new total number of atoms
variable      check1 equal 2922               
# Check that the molecule has indeed been inserted (This check is no longer an issue).
if            "${check1} != ${check0}" then "create_bonds  single/bond 2 ${randatomi} $b" "next i"
create_bonds  single/bond 2 ${randatomi} $b
create_bonds  single/bond 2 2327 $b
create_bonds  single/bond 2 2327 2893
  2 = max # of 1-2 neighbors
  5 = max # of special neighbors
  special bonds CPU = 0.0018974 secs
next i
jump MDPBB.in loop    # End of the loop
variable      randni equal round(random(1,${ntwall},$s))  # Pick a random "top" wall atom
variable      randni equal round(random(1,2592,$s))  
variable      randni equal round(random(1,2592,234897))  
variable      randatomi equal ${randni}                   # This is to obtain an integer number for atom-id
variable      randatomi equal 1525                   
variable      randzi equal z[${randatomi}]                # Determine the z coordinate of the chosen atom
variable      randzi equal z[1525]                
# if the chosen atom is not a surface atom then restart the loop
if            "${randzi} < $(v_wthick - 0.7)" then "jump MDPBB.in loop"
jump MDPBB.in loop
variable      randni equal round(random(1,${ntwall},$s))  # Pick a random "top" wall atom
variable      randni equal round(random(1,2592,$s))  
variable      randni equal round(random(1,2592,234897))  
variable      randatomi equal ${randni}                   # This is to obtain an integer number for atom-id
variable      randatomi equal 2204                   
variable      randzi equal z[${randatomi}]                # Determine the z coordinate of the chosen atom
variable      randzi equal z[2204]                
# if the chosen atom is not a surface atom then restart the loop
if            "${randzi} < $(v_wthick - 0.7)" then "jump MDPBB.in loop"
set           atom ${randatomi} type 4                    # Set this grafted wall atom as a new type
set           atom 2204 type 4                    
  1 settings made for type
group         twg id ${randatomi}                         # Add this atom to a top-wall-grafted group
group         twg id 2204                         
12 atoms in group twg
variable      twgcount equal count(twg)
print         "twg contains ${twgcount}"
twg contains 12
print         "i = $(v_i)"                                # The index i should always be equal to the number of atom in twg
i = 12
variable      x0 equal x[${randatomi}]                    # Determine its x-coord
variable      x0 equal x[2204]                    
variable      y0 equal y[${randatomi}]                    # Determine its y-coord
variable      y0 equal y[2204]                    
variable      check0 equal ${check}                       # Count the number of atoms in the simulation
variable      check0 equal 2922                       
variable      b equal ${check}+1                          # The grafted bead id will be one higher after being inserted
variable      b equal 2922+1                          
if            "${twgcount} != $(v_i)" then "jump MDPBB.in loop"
# Otherwise insert the chain directly above the chosen wall atom pointing perpendicular to the wall
create_atoms  1 single ${x0} ${y0} ${z0} mol bs 24987 units box remap yes rotate 0 0 0 1
create_atoms  1 single 15.874010519682 ${y0} ${z0} mol bs 24987 units box remap yes rotate 0 0 0 1
create_atoms  1 single 15.874010519682 19.8425131496025 ${z0} mol bs 24987 units box remap yes rotate 0 0 0 1
create_atoms  1 single 15.874010519682 19.8425131496025 17 mol bs 24987 units box remap yes rotate 0 0 0 1
Created 30 atoms
  create_atoms CPU = 7.68e-05 secs
variable      check1 equal ${check}               # Count the new total number of atoms
variable      check1 equal 2952               
# Check that the molecule has indeed been inserted (This check is no longer an issue).
if            "${check1} != ${check0}" then "create_bonds  single/bond 2 ${randatomi} $b" "next i"
create_bonds  single/bond 2 ${randatomi} $b
create_bonds  single/bond 2 2204 $b
create_bonds  single/bond 2 2204 2923
  2 = max # of 1-2 neighbors
  5 = max # of special neighbors
  special bonds CPU = 0.0052949 secs
next i
jump MDPBB.in loop    # End of the loop
variable      randni equal round(random(1,${ntwall},$s))  # Pick a random "top" wall atom
variable      randni equal round(random(1,2592,$s))  
variable      randni equal round(random(1,2592,234897))  
variable      randatomi equal ${randni}                   # This is to obtain an integer number for atom-id
variable      randatomi equal 2172                   
variable      randzi equal z[${randatomi}]                # Determine the z coordinate of the chosen atom
variable      randzi equal z[2172]                
# if the chosen atom is not a surface atom then restart the loop
if            "${randzi} < $(v_wthick - 0.7)" then "jump MDPBB.in loop"
set           atom ${randatomi} type 4                    # Set this grafted wall atom as a new type
set           atom 2172 type 4                    
  1 settings made for type
group         twg id ${randatomi}                         # Add this atom to a top-wall-grafted group
group         twg id 2172                         
13 atoms in group twg
variable      twgcount equal count(twg)
print         "twg contains ${twgcount}"
twg contains 13
print         "i = $(v_i)"                                # The index i should always be equal to the number of atom in twg
i = 13
variable      x0 equal x[${randatomi}]                    # Determine its x-coord
variable      x0 equal x[2172]                    
variable      y0 equal y[${randatomi}]                    # Determine its y-coord
variable      y0 equal y[2172]                    
variable      check0 equal ${check}                       # Count the number of atoms in the simulation
variable      check0 equal 2952                       
variable      b equal ${check}+1                          # The grafted bead id will be one higher after being inserted
variable      b equal 2952+1                          
if            "${twgcount} != $(v_i)" then "jump MDPBB.in loop"
# Otherwise insert the chain directly above the chosen wall atom pointing perpendicular to the wall
create_atoms  1 single ${x0} ${y0} ${z0} mol bs 24987 units box remap yes rotate 0 0 0 1
create_atoms  1 single 3.1748021039364 ${y0} ${z0} mol bs 24987 units box remap yes rotate 0 0 0 1
create_atoms  1 single 3.1748021039364 19.8425131496025 ${z0} mol bs 24987 units box remap yes rotate 0 0 0 1
create_atoms  1 single 3.1748021039364 19.8425131496025 17 mol bs 24987 units box remap yes rotate 0 0 0 1
Created 30 atoms
  create_atoms CPU = 7.02e-05 secs
variable      check1 equal ${check}               # Count the new total number of atoms
variable      check1 equal 2982               
# Check that the molecule has indeed been inserted (This check is no longer an issue).
if            "${check1} != ${check0}" then "create_bonds  single/bond 2 ${randatomi} $b" "next i"
create_bonds  single/bond 2 ${randatomi} $b
create_bonds  single/bond 2 2172 $b
create_bonds  single/bond 2 2172 2953
  2 = max # of 1-2 neighbors
  5 = max # of special neighbors
  special bonds CPU = 0.0025919 secs
next i
jump MDPBB.in loop    # End of the loop
variable      randni equal round(random(1,${ntwall},$s))  # Pick a random "top" wall atom
variable      randni equal round(random(1,2592,$s))  
variable      randni equal round(random(1,2592,234897))  
variable      randatomi equal ${randni}                   # This is to obtain an integer number for atom-id
variable      randatomi equal 1078                   
variable      randzi equal z[${randatomi}]                # Determine the z coordinate of the chosen atom
variable      randzi equal z[1078]                
# if the chosen atom is not a surface atom then restart the loop
if            "${randzi} < $(v_wthick - 0.7)" then "jump MDPBB.in loop"
jump MDPBB.in loop
variable      randni equal round(random(1,${ntwall},$s))  # Pick a random "top" wall atom
variable      randni equal round(random(1,2592,$s))  
variable      randni equal round(random(1,2592,234897))  
variable      randatomi equal ${randni}                   # This is to obtain an integer number for atom-id
variable      randatomi equal 2588                   
variable      randzi equal z[${randatomi}]                # Determine the z coordinate of the chosen atom
variable      randzi equal z[2588]                
# if the chosen atom is not a surface atom then restart the loop
if            "${randzi} < $(v_wthick - 0.7)" then "jump MDPBB.in loop"
set           atom ${randatomi} type 4                    # Set this grafted wall atom as a new type
set           atom 2588 type 4                    
  1 settings made for type
group         twg id ${randatomi}                         # Add this atom to a top-wall-grafted group
group         twg id 2588                         
14 atoms in group twg
variable      twgcount equal count(twg)
print         "twg contains ${twgcount}"
twg contains 14
print         "i = $(v_i)"                                # The index i should always be equal to the number of atom in twg
i = 14
variable      x0 equal x[${randatomi}]                    # Determine its x-coord
variable      x0 equal x[2588]                    
variable      y0 equal y[${randatomi}]                    # Determine its y-coord
variable      y0 equal y[2588]                    
variable      check0 equal ${check}                       # Count the number of atoms in the simulation
variable      check0 equal 2982                       
variable      b equal ${check}+1                          # The grafted bead id will be one higher after being inserted
variable      b equal 2982+1                          
if            "${twgcount} != $(v_i)" then "jump MDPBB.in loop"
# Otherwise insert the chain directly above the chosen wall atom pointing perpendicular to the wall
create_atoms  1 single ${x0} ${y0} ${z0} mol bs 24987 units box remap yes rotate 0 0 0 1
create_atoms  1 single 25.3984168314912 ${y0} ${z0} mol bs 24987 units box remap yes rotate 0 0 0 1
create_atoms  1 single 25.3984168314912 27.7795184094435 ${z0} mol bs 24987 units box remap yes rotate 0 0 0 1
create_atoms  1 single 25.3984168314912 27.7795184094435 17 mol bs 24987 units box remap yes rotate 0 0 0 1
Created 30 atoms
  create_atoms CPU = 8.64e-05 secs
variable      check1 equal ${check}               # Count the new total number of atoms
variable      check1 equal 3012               
# Check that the molecule has indeed been inserted (This check is no longer an issue).
if            "${check1} != ${check0}" then "create_bonds  single/bond 2 ${randatomi} $b" "next i"
create_bonds  single/bond 2 ${randatomi} $b
create_bonds  single/bond 2 2588 $b
create_bonds  single/bond 2 2588 2983
  2 = max # of 1-2 neighbors
  5 = max # of special neighbors
  special bonds CPU = 0.0020212 secs
next i
jump MDPBB.in loop    # End of the loop
variable      randni equal round(random(1,${ntwall},$s))  # Pick a random "top" wall atom
variable      randni equal round(random(1,2592,$s))  
variable      randni equal round(random(1,2592,234897))  
variable      randatomi equal ${randni}                   # This is to obtain an integer number for atom-id
variable      randatomi equal 2526                   
variable      randzi equal z[${randatomi}]                # Determine the z coordinate of the chosen atom
variable      randzi equal z[2526]                
# if the chosen atom is not a surface atom then restart the loop
if            "${randzi} < $(v_wthick - 0.7)" then "jump MDPBB.in loop"
jump MDPBB.in loop
variable      randni equal round(random(1,${ntwall},$s))  # Pick a random "top" wall atom
variable      randni equal round(random(1,2592,$s))  
variable      randni equal round(random(1,2592,234897))  
variable      randatomi equal ${randni}                   # This is to obtain an integer number for atom-id
variable      randatomi equal 1878                   
variable      randzi equal z[${randatomi}]                # Determine the z coordinate of the chosen atom
variable      randzi equal z[1878]                
# if the chosen atom is not a surface atom then restart the loop
if            "${randzi} < $(v_wthick - 0.7)" then "jump MDPBB.in loop"
jump MDPBB.in loop
variable      randni equal round(random(1,${ntwall},$s))  # Pick a random "top" wall atom
variable      randni equal round(random(1,2592,$s))  
variable      randni equal round(random(1,2592,234897))  
variable      randatomi equal ${randni}                   # This is to obtain an integer number for atom-id
variable      randatomi equal 2435                   
variable      randzi equal z[${randatomi}]                # Determine the z coordinate of the chosen atom
variable      randzi equal z[2435]                
# if the chosen atom is not a surface atom then restart the loop
if            "${randzi} < $(v_wthick - 0.7)" then "jump MDPBB.in loop"
set           atom ${randatomi} type 4                    # Set this grafted wall atom as a new type
set           atom 2435 type 4                    
  1 settings made for type
group         twg id ${randatomi}                         # Add this atom to a top-wall-grafted group
group         twg id 2435                         
15 atoms in group twg
variable      twgcount equal count(twg)
print         "twg contains ${twgcount}"
twg contains 15
print         "i = $(v_i)"                                # The index i should always be equal to the number of atom in twg
i = 15
variable      x0 equal x[${randatomi}]                    # Determine its x-coord
variable      x0 equal x[2435]                    
variable      y0 equal y[${randatomi}]                    # Determine its y-coord
variable      y0 equal y[2435]                    
variable      check0 equal ${check}                       # Count the number of atoms in the simulation
variable      check0 equal 3012                       
variable      b equal ${check}+1                          # The grafted bead id will be one higher after being inserted
variable      b equal 3012+1                          
if            "${twgcount} != $(v_i)" then "jump MDPBB.in loop"
# Otherwise insert the chain directly above the chosen wall atom pointing perpendicular to the wall
create_atoms  1 single ${x0} ${y0} ${z0} mol bs 24987 units box remap yes rotate 0 0 0 1
create_atoms  1 single 23.0173152535389 ${y0} ${z0} mol bs 24987 units box remap yes rotate 0 0 0 1
create_atoms  1 single 23.0173152535389 23.811015779523 ${z0} mol bs 24987 units box remap yes rotate 0 0 0 1
create_atoms  1 single 23.0173152535389 23.811015779523 17 mol bs 24987 units box remap yes rotate 0 0 0 1
Created 30 atoms
  create_atoms CPU = 5.85e-05 secs
variable      check1 equal ${check}               # Count the new total number of atoms
variable      check1 equal 3042               
# Check that the molecule has indeed been inserted (This check is no longer an issue).
if            "${check1} != ${check0}" then "create_bonds  single/bond 2 ${randatomi} $b" "next i"
create_bonds  single/bond 2 ${randatomi} $b
create_bonds  single/bond 2 2435 $b
create_bonds  single/bond 2 2435 3013
  2 = max # of 1-2 neighbors
  5 = max # of special neighbors
  special bonds CPU = 0.0033218 secs
next i
jump MDPBB.in loop    # End of the loop
variable      randni equal round(random(1,${ntwall},$s))  # Pick a random "top" wall atom
variable      randni equal round(random(1,2592,$s))  
variable      randni equal round(random(1,2592,234897))  
variable      randatomi equal ${randni}                   # This is to obtain an integer number for atom-id
variable      randatomi equal 612                   
variable      randzi equal z[${randatomi}]                # Determine the z coordinate of the chosen atom
variable      randzi equal z[612]                
# if the chosen atom is not a surface atom then restart the loop
if            "${randzi} < $(v_wthick - 0.7)" then "jump MDPBB.in loop"
jump MDPBB.in loop
variable      randni equal round(random(1,${ntwall},$s))  # Pick a random "top" wall atom
variable      randni equal round(random(1,2592,$s))  
variable      randni equal round(random(1,2592,234897))  
variable      randatomi equal ${randni}                   # This is to obtain an integer number for atom-id
variable      randatomi equal 2418                   
variable      randzi equal z[${randatomi}]                # Determine the z coordinate of the chosen atom
variable      randzi equal z[2418]                
# if the chosen atom is not a surface atom then restart the loop
if            "${randzi} < $(v_wthick - 0.7)" then "jump MDPBB.in loop"
jump MDPBB.in loop
variable      randni equal round(random(1,${ntwall},$s))  # Pick a random "top" wall atom
variable      randni equal round(random(1,2592,$s))  
variable      randni equal round(random(1,2592,234897))  
variable      randatomi equal ${randni}                   # This is to obtain an integer number for atom-id
variable      randatomi equal 339                   
variable      randzi equal z[${randatomi}]                # Determine the z coordinate of the chosen atom
variable      randzi equal z[339]                
# if the chosen atom is not a surface atom then restart the loop
if            "${randzi} < $(v_wthick - 0.7)" then "jump MDPBB.in loop"
jump MDPBB.in loop
variable      randni equal round(random(1,${ntwall},$s))  # Pick a random "top" wall atom
variable      randni equal round(random(1,2592,$s))  
variable      randni equal round(random(1,2592,234897))  
variable      randatomi equal ${randni}                   # This is to obtain an integer number for atom-id
variable      randatomi equal 2204                   
variable      randzi equal z[${randatomi}]                # Determine the z coordinate of the chosen atom
variable      randzi equal z[2204]                
# if the chosen atom is not a surface atom then restart the loop
if            "${randzi} < $(v_wthick - 0.7)" then "jump MDPBB.in loop"
set           atom ${randatomi} type 4                    # Set this grafted wall atom as a new type
set           atom 2204 type 4                    
  1 settings made for type
group         twg id ${randatomi}                         # Add this atom to a top-wall-grafted group
group         twg id 2204                         
15 atoms in group twg
variable      twgcount equal count(twg)
print         "twg contains ${twgcount}"
twg contains 15
print         "i = $(v_i)"                                # The index i should always be equal to the number of atom in twg
i = 16
variable      x0 equal x[${randatomi}]                    # Determine its x-coord
variable      x0 equal x[2204]                    
variable      y0 equal y[${randatomi}]                    # Determine its y-coord
variable      y0 equal y[2204]                    
variable      check0 equal ${check}                       # Count the number of atoms in the simulation
variable      check0 equal 3042                       
variable      b equal ${check}+1                          # The grafted bead id will be one higher after being inserted
variable      b equal 3042+1                          
if            "${twgcount} != $(v_i)" then "jump MDPBB.in loop"
jump MDPBB.in loop
variable      randni equal round(random(1,${ntwall},$s))  # Pick a random "top" wall atom
variable      randni equal round(random(1,2592,$s))  
variable      randni equal round(random(1,2592,234897))  
variable      randatomi equal ${randni}                   # This is to obtain an integer number for atom-id
variable      randatomi equal 2421                   
variable      randzi equal z[${randatomi}]                # Determine the z coordinate of the chosen atom
variable      randzi equal z[2421]                
# if the chosen atom is not a surface atom then restart the loop
if            "${randzi} < $(v_wthick - 0.7)" then "jump MDPBB.in loop"
jump MDPBB.in loop
variable      randni equal round(random(1,${ntwall},$s))  # Pick a random "top" wall atom
variable      randni equal round(random(1,2592,$s))  
variable      randni equal round(random(1,2592,234897))  
variable      randatomi equal ${randni}                   # This is to obtain an integer number for atom-id
variable      randatomi equal 888                   
variable      randzi equal z[${randatomi}]                # Determine the z coordinate of the chosen atom
variable      randzi equal z[888]                
# if the chosen atom is not a surface atom then restart the loop
if            "${randzi} < $(v_wthick - 0.7)" then "jump MDPBB.in loop"
jump MDPBB.in loop
variable      randni equal round(random(1,${ntwall},$s))  # Pick a random "top" wall atom
variable      randni equal round(random(1,2592,$s))  
variable      randni equal round(random(1,2592,234897))  
variable      randatomi equal ${randni}                   # This is to obtain an integer number for atom-id
variable      randatomi equal 675                   
variable      randzi equal z[${randatomi}]                # Determine the z coordinate of the chosen atom
variable      randzi equal z[675]                
# if the chosen atom is not a surface atom then restart the loop
if            "${randzi} < $(v_wthick - 0.7)" then "jump MDPBB.in loop"
jump MDPBB.in loop
variable      randni equal round(random(1,${ntwall},$s))  # Pick a random "top" wall atom
variable      randni equal round(random(1,2592,$s))  
variable      randni equal round(random(1,2592,234897))  
variable      randatomi equal ${randni}                   # This is to obtain an integer number for atom-id
variable      randatomi equal 1721                   
variable      randzi equal z[${randatomi}]                # Determine the z coordinate of the chosen atom
variable      randzi equal z[1721]                
# if the chosen atom is not a surface atom then restart the loop
if            "${randzi} < $(v_wthick - 0.7)" then "jump MDPBB.in loop"
jump MDPBB.in loop
variable      randni equal round(random(1,${ntwall},$s))  # Pick a random "top" wall atom
variable      randni equal round(random(1,2592,$s))  
variable      randni equal round(random(1,2592,234897))  
variable      randatomi equal ${randni}                   # This is to obtain an integer number for atom-id
variable      randatomi equal 1209                   
variable      randzi equal z[${randatomi}]                # Determine the z coordinate of the chosen atom
variable      randzi equal z[1209]                
# if the chosen atom is not a surface atom then restart the loop
if            "${randzi} < $(v_wthick - 0.7)" then "jump MDPBB.in loop"
jump MDPBB.in loop
variable      randni equal round(random(1,${ntwall},$s))  # Pick a random "top" wall atom
variable      randni equal round(random(1,2592,$s))  
variable      randni equal round(random(1,2592,234897))  
variable      randatomi equal ${randni}                   # This is to obtain an integer number for atom-id
variable      randatomi equal 375                   
variable      randzi equal z[${randatomi}]                # Determine the z coordinate of the chosen atom
variable      randzi equal z[375]                
# if the chosen atom is not a surface atom then restart the loop
if            "${randzi} < $(v_wthick - 0.7)" then "jump MDPBB.in loop"
jump MDPBB.in loop
variable      randni equal round(random(1,${ntwall},$s))  # Pick a random "top" wall atom
variable      randni equal round(random(1,2592,$s))  
variable      randni equal round(random(1,2592,234897))  
variable      randatomi equal ${randni}                   # This is to obtain an integer number for atom-id
variable      randatomi equal 2387                   
variable      randzi equal z[${randatomi}]                # Determine the z coordinate of the chosen atom
variable      randzi equal z[2387]                
# if the chosen atom is not a surface atom then restart the loop
if            "${randzi} < $(v_wthick - 0.7)" then "jump MDPBB.in loop"
set           atom ${randatomi} type 4                    # Set this grafted wall atom as a new type
set           atom 2387 type 4                    
  1 settings made for type
group         twg id ${randatomi}                         # Add this atom to a top-wall-grafted group
group         twg id 2387                         
16 atoms in group twg
variable      twgcount equal count(twg)
print         "twg contains ${twgcount}"
twg contains 16
print         "i = $(v_i)"                                # The index i should always be equal to the number of atom in twg
i = 16
variable      x0 equal x[${randatomi}]                    # Determine its x-coord
variable      x0 equal x[2387]                    
variable      y0 equal y[${randatomi}]                    # Determine its y-coord
variable      y0 equal y[2387]                    
variable      check0 equal ${check}                       # Count the number of atoms in the simulation
variable      check0 equal 3042                       
variable      b equal ${check}+1                          # The grafted bead id will be one higher after being inserted
variable      b equal 3042+1                          
if            "${twgcount} != $(v_i)" then "jump MDPBB.in loop"
# Otherwise insert the chain directly above the chosen wall atom pointing perpendicular to the wall
create_atoms  1 single ${x0} ${y0} ${z0} mol bs 24987 units box remap yes rotate 0 0 0 1
create_atoms  1 single 3.9685026299205 ${y0} ${z0} mol bs 24987 units box remap yes rotate 0 0 0 1
create_atoms  1 single 3.9685026299205 23.811015779523 ${z0} mol bs 24987 units box remap yes rotate 0 0 0 1
create_atoms  1 single 3.9685026299205 23.811015779523 17 mol bs 24987 units box remap yes rotate 0 0 0 1
Created 30 atoms
  create_atoms CPU = 7.81e-05 secs
variable      check1 equal ${check}               # Count the new total number of atoms
variable      check1 equal 3072               
# Check that the molecule has indeed been inserted (This check is no longer an issue).
if            "${check1} != ${check0}" then "create_bonds  single/bond 2 ${randatomi} $b" "next i"
create_bonds  single/bond 2 ${randatomi} $b
create_bonds  single/bond 2 2387 $b
create_bonds  single/bond 2 2387 3043
  2 = max # of 1-2 neighbors
  5 = max # of special neighbors
  special bonds CPU = 0.0020282 secs
next i
jump MDPBB.in loop    # End of the loop
variable      randni equal round(random(1,${ntwall},$s))  # Pick a random "top" wall atom
variable      randni equal round(random(1,2592,$s))  
variable      randni equal round(random(1,2592,234897))  
variable      randatomi equal ${randni}                   # This is to obtain an integer number for atom-id
variable      randatomi equal 2480                   
variable      randzi equal z[${randatomi}]                # Determine the z coordinate of the chosen atom
variable      randzi equal z[2480]                
# if the chosen atom is not a surface atom then restart the loop
if            "${randzi} < $(v_wthick - 0.7)" then "jump MDPBB.in loop"
set           atom ${randatomi} type 4                    # Set this grafted wall atom as a new type
set           atom 2480 type 4                    
  1 settings made for type
group         twg id ${randatomi}                         # Add this atom to a top-wall-grafted group
group         twg id 2480                         
17 atoms in group twg
variable      twgcount equal count(twg)
print         "twg contains ${twgcount}"
twg contains 17
print         "i = $(v_i)"                                # The index i should always be equal to the number of atom in twg
i = 17
variable      x0 equal x[${randatomi}]                    # Determine its x-coord
variable      x0 equal x[2480]                    
variable      y0 equal y[${randatomi}]                    # Determine its y-coord
variable      y0 equal y[2480]                    
variable      check0 equal ${check}                       # Count the number of atoms in the simulation
variable      check0 equal 3072                       
variable      b equal ${check}+1                          # The grafted bead id will be one higher after being inserted
variable      b equal 3072+1                          
if            "${twgcount} != $(v_i)" then "jump MDPBB.in loop"
# Otherwise insert the chain directly above the chosen wall atom pointing perpendicular to the wall
create_atoms  1 single ${x0} ${y0} ${z0} mol bs 24987 units box remap yes rotate 0 0 0 1
create_atoms  1 single 11.1118073637774 ${y0} ${z0} mol bs 24987 units box remap yes rotate 0 0 0 1
create_atoms  1 single 11.1118073637774 26.1921173574753 ${z0} mol bs 24987 units box remap yes rotate 0 0 0 1
create_atoms  1 single 11.1118073637774 26.1921173574753 17 mol bs 24987 units box remap yes rotate 0 0 0 1
Created 30 atoms
  create_atoms CPU = 8.46e-05 secs
variable      check1 equal ${check}               # Count the new total number of atoms
variable      check1 equal 3102               
# Check that the molecule has indeed been inserted (This check is no longer an issue).
if            "${check1} != ${check0}" then "create_bonds  single/bond 2 ${randatomi} $b" "next i"
create_bonds  single/bond 2 ${randatomi} $b
create_bonds  single/bond 2 2480 $b
create_bonds  single/bond 2 2480 3073
  2 = max # of 1-2 neighbors
[...]
  157000    5.0410633    1.4730107    3.5680526  -0.28861818   0.98211895    1.2697853    0.7825571   -3.7037037            3    2.8479787    3.7441291       3.8239   0.97590704  0.013520295  -0.10586339 -0.017426868    2.7017506    2.6832209   0.92475083        0.075    2.0509054          0.5   0.10275009    4.8661757    2.5271311    34.671791 0.0055886489  -0.34065743 0.0092118921   0.32855124    1.1370839    4.9582205 
  158000    5.0824249    1.5075858    3.5748391  -0.29666038    1.0051716    1.2869619   0.80969444   -3.7037037            3    2.7499414    3.6816235     3.757821   0.81037962  0.033880861 -0.084879218  0.074522043    2.5986424    2.5829549   0.93685273        0.075    2.0414552          0.5   0.10409475    4.8033163    2.5525335    34.671791 -0.010405895  -0.34656864 -0.016680034   0.38222327    1.0608164    2.3698828 
  159000    5.0632008    1.5119227    3.5512781   -0.3024316    1.0080633    1.2689732   0.82708568   -3.7037037            3    2.8637273    3.7328595    3.8421523    1.0161701 0.0065530173 -0.043285812 0.0022184808    2.7091785    2.6990749   0.94126265        0.075    2.0829966          0.5   0.10458474    4.7808122    2.5377654    34.671791 0.0042258058  -0.38218172 -0.0021457126   0.39687401   0.63507183     6.145259 
  160000    5.0859558    1.5186658      3.56729  -0.29802981    1.0125592    1.3046497   0.80993107   -3.7037037            3    2.6060761     3.528215    3.6333076   0.65670567 -0.0011527202  -0.15200651  0.042114356    2.4547329    2.4367946   0.93617246        0.075    2.1042569          0.5   0.10401916    4.8068066    2.5387629    34.671791 -0.00057625622  -0.39562226 -0.0018036318   0.41721899    2.1615244    2.8370182 
  161000    5.0718123     1.512928    3.5588843  -0.30293377    1.0087335    1.3081569   0.80101286   -3.7037037            3    2.6426335    3.5415227    3.6833913   0.70298652  0.014400155 -0.098877426  0.023873763    2.4929567     2.472897   0.93343314        0.075    2.0803608          0.5   0.10371479    4.8209131    2.5687526    34.671791  0.010189393  -0.29403482  0.015539795   0.37161422    1.6869221   0.22922699 
  162000    5.0734607    1.5121793    3.5612814  -0.28338233    1.0082343    1.2931891   0.81056033   -3.7037037            3    2.7033491    3.6654873    3.7262806   0.71827929   0.01159846  -0.15826302  0.030792773    2.5518883    2.5355546   0.92842336        0.075    2.0729802          0.5   0.10315815    4.8469267    2.5302497    34.671791 -0.0053570061  -0.38916615 -0.0064079688   0.30952254   0.50999135    1.9195293 
  163000    5.0677546    1.4901904    3.5775642  -0.30650187   0.99357341     1.286247   0.79053681   -3.7037037            3    2.7683638    3.6458261    3.7847905    0.8744748 0.0076890205 -0.026877557 -0.0011002117    2.6206446    2.6014701   0.93372848        0.075     2.081483          0.5   0.10374761    4.8193882    2.5465787    34.671791 0.0062964662  -0.32682914  0.014595903   0.39317286   0.62572888    4.0124876 
  164000    5.0689891    1.4949517    3.5740374  -0.29971214   0.99674793    1.2629001   0.81212805   -3.7037037            3    2.7733687    3.6469303    3.7804263   0.89274942 -0.003975714 -0.024776717  0.014186664    2.6216149    2.6095043   0.91920406        0.075    2.0747396          0.5   0.10213378    4.8955397    2.5490141    34.671791 -0.011308615  -0.41841224 2.9228644e-05   0.34238524 -0.026766491    2.8947183 
  165000    5.0826165    1.5069423    3.5756742   -0.2910314    1.0047426    1.2627588    0.8257737   -3.7037037            3    2.8013156    3.7120239    3.7839879   0.90793513 0.0069903114 -0.022426746  0.017912225     2.647012    2.6374696    0.9248881        0.075    2.0434027          0.5   0.10276534    4.8654535    2.5563404    34.671791 0.00089324403  -0.41195351  0.007990202   0.38336555  -0.27621654     2.880275 
  166000    5.0733086    1.4997045    3.5736041  -0.29444179   0.99991683    1.2654526   0.81572559   -3.7037037            3    2.9502943    3.8194273    3.9042375     1.127218  -0.01015893 -0.095999021  0.033718097    2.7978683    2.7860987   0.93716373        0.075    2.0527928          0.5    0.1041293    4.8017223    2.5620602    34.671791 0.0079228138  -0.35423421  0.007515118   0.39145653    0.3690611    3.9142278 
  167000    5.0763821    1.5140756    3.5623066  -0.29579092    1.0094986    1.2917512   0.81370133   -3.7037037            3    2.8426147    3.7314992    3.8402597   0.95608505 -0.0063487612  -0.13345624 0.0010215512    2.6905669    2.6750068   0.93679584        0.075    2.0435303          0.5   0.10408843     4.803608    2.5759237    34.671791  0.015741108  -0.40744996 -0.0040986033   0.39891022  -0.43846032    4.1811112 
  168000    5.0835729    1.5235012    3.5600717   -0.3105326    1.0157831     1.300671   0.81815703   -3.7037037            3    2.8520227     3.765029    3.8407175   0.95032143 -0.00038812954  -0.10805136 -0.034436752    2.6991423    2.6832574   0.93600657        0.075    2.0470107          0.5   0.10400073    4.8076585    2.5506164    34.671791  0.013601068  -0.41384118 0.0024017987    0.4045035  0.023085465    3.1572087 
  169000    5.0541267    1.4677667      3.58636  -0.28916524   0.97862255    1.2701823   0.77635652   -3.7037037            3    2.7968613    3.6970239    3.7978135   0.89574653 -0.028066759  -0.15545549  0.026893004    2.6517918     2.632052    0.9143142        0.075    2.0761159          0.5   0.10159047    4.9217217    2.5319192    34.671791  -0.01357017  -0.35163248  0.018374577    0.3819771   0.85615108    2.7335507 
  170000    5.0557462    1.5079452     3.547801  -0.30655819    1.0054113    1.3049395   0.79761721   -3.7037037            3    2.8374893    3.7574166    3.8147459   0.94030535 -0.0041135957 -0.088095614  0.021864695     2.688447    2.6681702   0.94788412        0.075    2.0979356          0.5   0.10532046    4.7474157    2.5392766    34.671791  0.014672437  -0.42047493 -0.0067889111   0.41495262   0.17602733    3.3594111 
  171000    5.0576235    1.4953766    3.5622469  -0.30436831   0.99703126    1.2912167   0.79294551   -3.7037037            3    2.5876333    3.4880167    3.6516514   0.62323184 -0.0077394918  -0.24492742 -0.045791195     2.439464    2.4200948   0.92882795        0.075     2.100792          0.5   0.10320311    4.8448154    2.5464876    34.671791 0.0060507142  -0.34725055  0.018867887   0.31317682    2.5032227   0.50247517 
  172000    5.0917952    1.5315728    3.5602224  -0.31725925    1.0211648    1.3061224   0.82349136   -3.7037037            3    2.7191923    3.6193231    3.7294458   0.80880809 -0.0082094069  -0.22947967  0.022487146    2.5653152    2.5497197   0.94992583        0.075    2.1016164          0.5   0.10554731     4.737212    2.5857228    34.671791 -0.014705953   -0.3632163 0.0075750491   0.42796398    1.8315509    1.5714305 
  173000    5.0776506    1.4960289    3.5816217  -0.28419894   0.99746617     1.286352   0.79706051   -3.7037037            3    2.7634137      3.69282    3.7384744   0.85894687 -0.024300723  -0.10618422 0.0040461157    2.6144755    2.5965064   0.91084433        0.075    2.1131958          0.5   0.10120493     4.940471    2.5533031    34.671791 0.0059471872  -0.36675058 -0.030977892   0.32427739  -0.51503234    7.2588537 
  174000    5.1014022     1.515702    3.5857002  -0.29740107    1.0105831    1.3046452   0.80658557   -3.7037037            3    2.8539816     3.719283    3.8228992    1.0197627 -0.016513523  -0.15557881 0.0034961836    2.7032635    2.6847007   0.92846159        0.075    2.1020102          0.5    0.1031624    4.8467271    2.5340999    34.671791 0.0086234197  -0.39826337 -0.011812366   0.49339914   0.67752683    3.6127139 
  175000    5.1150256    1.5367964    3.5782292  -0.28907756    1.0246476    1.3204076   0.81947386   -3.7037037            3    2.6725053    3.6148069    3.7170451   0.68566398 -0.0040586217 -0.023389604 -0.055272351    2.5193789    2.5011792   0.93285051        0.075     2.097372          0.5   0.10365006    4.8239241     2.570001    34.671791 -0.00014515177  -0.32415053  0.013777344   0.42256266     1.974161    3.7387834 
  176000    5.0890902    1.5233719    3.5657183  -0.29603555    1.0156969    1.2927457   0.82351421   -3.7037037            3    2.7771387    3.6709654    3.7951701   0.86528059 -0.010801156 -0.039748875  0.029862093    2.6232573    2.6094018   0.93081335        0.075    2.0589856          0.5   0.10342371    4.8344816    2.5717922    34.671791 -0.0044467385  -0.38884952 -0.00019739979   0.43382749   0.54804498  -0.80254612 
  177000    5.0711141    1.4987003    3.5724138  -0.28981161   0.99924731    1.2835298   0.80203848   -3.7037037            3    2.6928456    3.6615634    3.6951222   0.72185118  0.011721156  0.031630542 -0.012389398    2.5429772    2.5263045   0.92522091        0.075     2.036862          0.5   0.10280232    4.8637033    2.5339058    34.671791  0.014844572  -0.35137942 -0.0051968027   0.36698566  0.076190025    5.4784644 
  178000    5.0804693    1.5056792    3.5747901  -0.29171101    1.0039004    1.2813421    0.8114426   -3.7037037            3    2.7073117    3.6587554     3.730122   0.73305765 -0.001252417   0.16414659  0.027424827     2.555686    2.5410544   0.93439649        0.075    2.0629312          0.5   0.10382183    4.8159428     2.564826    34.671791  0.019782602  -0.37193023 0.0016759507   0.31512508   0.74154354    1.4865219 
  179000    5.0925899     1.524171    3.5684188   -0.2916505    1.0162297    1.2789691   0.83398339   -3.7037037            3     2.955265     3.831663    3.8867304    1.1474015 -0.015629037 -0.089706749 -0.034425097    2.7994273    2.7893156    0.9330078        0.075    2.0532661          0.5   0.10366753    4.8231108    2.5550413    34.671791 -0.0054354243   -0.3614882 -0.0025229588   0.37156576  -0.70560364     4.870145 
  180000    5.0857859    1.5023393    3.5834466  -0.29719952    1.0016736    1.2829712   0.80653782   -3.7037037            3    2.6549822    3.5805978    3.6949491   0.68939971  0.014948178 -0.085722328  0.020655204     2.504273    2.4885135   0.94506427        0.075    2.0943182          0.5   0.10500714    4.7615809    2.5617172    34.671791 -0.0076351188  -0.36580333 -0.0035440001   0.35360629    1.1933831   0.98080236 
  181000    5.0900269    1.5108951    3.5791319  -0.28900353    1.0073781    1.2819723   0.81689819   -3.7037037            3    2.8185512    3.7342509    3.8016609   0.91974192 -0.024889164  -0.14477018  0.033684516    2.6659061    2.6522122   0.93185079        0.075    2.0798885          0.5   0.10353898    4.8290993    2.5799113    34.671791 -0.010884216  -0.33095051  0.019053255   0.33959483    0.8047619    3.8102218 
  182000    5.0913589    1.5142056    3.5771532  -0.29656369    1.0095854    1.2839632   0.81925611   -3.7037037            3    2.9092949    3.7965225     3.876131    1.0552314 -0.022268033 -0.077145707  0.083850181    2.7562092    2.7426976   0.93023969        0.075    2.0740119          0.5   0.10335997    4.8374629    2.5187144    34.671791 -0.012189543  -0.36249078 -0.0029566558   0.36595811    2.1618344    4.8203389 
  183000    5.0372478    1.4843226    3.5529251   -0.2985945   0.98966108    1.2757461   0.79119871   -3.7037037            3    2.6513197    3.5619238    3.6895542   0.70248094 -0.022257261  -0.05012878 -0.027810803    2.5034767    2.4857885   0.93517122        0.075     2.076181          0.5   0.10390791    4.8119531    2.5721886    34.671791 -0.0013743059  -0.39931194 0.0011505543   0.42146148  0.064886337    3.9307462 
  184000    5.0969109    1.5083051    3.5886057  -0.29587272    1.0056512     1.283268   0.81307223   -3.7037037            3    2.8227824     3.694651    3.8089406   0.96475574 0.0097960504  -0.11082455  -0.04135123    2.6708523    2.6562753   0.93750559        0.075    2.0893407          0.5   0.10416729    4.7999714    2.5536176    34.671791 -0.0019060489  -0.40769306 -0.020973477   0.34401504    1.3052751    5.1232223 
  185000     5.079368    1.5077961    3.5715719  -0.29656992    1.0053118    1.2926415   0.80598828   -3.7037037            3    2.7608238    3.6503105    3.7716995   0.86046157 0.0024774858 -0.036741059  -0.01688116    2.6102174    2.5931004   0.92403642        0.075    2.0697657          0.5   0.10267071    4.8699379    2.5418754    34.671791 -0.0069931442  -0.36466496  0.010040464    0.3497359 -0.059825019    3.5690798 
  186000     5.067464    1.4845237    3.5829403  -0.29356849   0.98979514    1.2660435   0.79816323   -3.7037037            3     2.735755    3.6245662    3.7444484   0.83825028 0.0025061609 -0.072215529 -0.037631792    2.5866107    2.5714827   0.92869839        0.075    2.0784149          0.5   0.10318871    4.8454913    2.5513803    34.671791 0.0031643204   -0.4469904  0.017407005   0.41450748  0.063404038   0.18491967 
  187000    5.0906587    1.5028912    3.5877675  -0.29178172    1.0020415    1.3027148   0.79345173   -3.7037037            3    2.5775874    3.5035598    3.6397696   0.58943283 -0.0061289186  -0.11514948 -0.033546396    2.4293235     2.408557   0.93050973        0.075     2.059109          0.5   0.10338997    4.8360591    2.5357069    34.671791 -0.0083077301   -0.3796077  0.004002018   0.35067548  -0.79368612   0.67964071 
  188000    5.0713522    1.4862799    3.5850724  -0.29619877   0.99096605    1.2757186   0.79342919   -3.7037037            3    2.7046997    3.5925359    3.7156809   0.80588231  0.001891138 -0.019487762   0.02048909      2.55644    2.5391721   0.92795683        0.075    2.0631549          0.5   0.10310631    4.8493635     2.561332    34.671791  0.010548178  -0.36804337 0.0074676531   0.38438582    1.3791552    3.6812583 
  189000    5.0435285    1.5034332    3.5400953  -0.30296882    1.0024029    1.2899227   0.80294677   -3.7037037            3    2.8690828    3.7716605    3.8466135   0.98897431 0.0013119016 -0.068544875 -0.054092874    2.7190446    2.7017121    0.9386453        0.075    2.0416556          0.5   0.10429392    4.7941432    2.5543484    34.671791 -0.013139669  -0.35318638 0.0030206339   0.38868899   0.42087261    2.8695851 
  190000     5.065469    1.4925377    3.5729313  -0.31021783   0.99513844     1.267042   0.80652456   -3.7037037            3    2.6040116    3.5062222    3.6639294   0.64188333  0.012423466 -0.057907334   -0.0148479    2.4533049    2.4396098   0.92344106        0.075    2.0875973          0.5   0.10260456    4.8730777    2.5445864    34.671791  -0.00669243  -0.37270409 -0.0057855709   0.33805678    1.3224911  -0.26466476 
  191000    5.0604444    1.4795495    3.5808948  -0.29286341   0.98647867     1.274469   0.78669269   -3.7037037            3    2.7618214    3.7109531    3.7200598   0.85445135 -0.022877662 -0.062118447  0.018808964    2.6148205    2.5964559   0.93919911        0.075    2.0720144          0.5   0.10435546    4.7913163     2.563923    34.671791 -0.010591918  -0.43808219 0.0077445129   0.43670776  -0.44786498    3.0006413 
  192000    5.0361788    1.4691336    3.5670453   -0.3004153   0.97953389    1.2599685   0.78499319   -3.7037037            3     2.676327    3.6234255     3.676877   0.72867847 -0.0031352407  0.085154162  0.063794717    2.5296436     2.512843   0.93527071        0.075    2.0669883          0.5   0.10391897    4.8114412    2.5584975    34.671791  0.012594723  -0.40023307 0.0083987338   0.31551398   0.50163798   0.60555041 
  193000     5.082757    1.4986729     3.584084  -0.29394409   0.99922903    1.2623665   0.81670301   -3.7037037            3     2.805272    3.6986527    3.7866361   0.93052733 0.0026064571  -0.21805003  0.031871338    2.6526634    2.6414769   0.93663004        0.075    2.0742671          0.5      0.10407    4.8044583    2.5335172    34.671791 -0.0065711691  -0.43454523 -0.024871072   0.35921461    1.6934391    4.1156006 
  194000    5.0805224    1.5074667    3.5730557  -0.30361637    1.0050922    1.2608662   0.82768047   -3.7037037            3    2.8954091    3.7499741    3.8787663    1.0574868 0.0017647149  -0.24775186 -0.073038348    2.7407492    2.7318086   0.93642214        0.075    2.0800189          0.5    0.1040469     4.805525     2.584665    34.671791 0.0079447331  -0.37530304  -0.01700217    0.3645887    4.3297359    5.1169918 
  195000    5.0986858    1.5236604    3.5750254  -0.29702734    1.0158892    1.2904192   0.82545562   -3.7037037            3     2.793107    3.7019232    3.7987661   0.87863168 0.0004328968 -0.091865893 -0.066097884    2.6388628    2.6256719   0.93705058        0.075    2.0584208          0.5   0.10411673    4.8023022    2.5388946    34.671791  0.011824249  -0.38920673  -0.01412866   0.34199739   0.64929277    2.6318549 
  196000    5.0129977    1.4623159    3.5506818   -0.3131598   0.97498826    1.2533424   0.78189131   -3.7037037            3    2.7430632    3.6415094    3.7409306   0.84674963 -0.017852736  -0.10432895  0.016632085    2.5969595     2.580439   0.92501383        0.075    2.0599065          0.5   0.10277931    4.8647922    2.5478307    34.671791  0.020076686  -0.35135324 0.0087674306   0.39329509    1.0469758     4.225816 
  197000    5.0335974    1.4876671    3.5459302  -0.31257003     0.991891    1.2655279   0.80207289   -3.7037037            3     2.730378    3.6413132    3.7221902   0.82763068  0.034962427 -0.090208663  0.011253264    2.5805032    2.5661727   0.93324743        0.075    2.0649872          0.5   0.10369416    4.8218724    2.5645722    34.671791  -0.01873992  -0.36044992 -0.0031235293   0.38459531  -0.16615437     2.413087 
  198000    5.0445595    1.4884986    3.5560609  -0.30720641   0.99244535    1.2540237   0.81100061   -3.7037037            3    2.6714724    3.5519899    3.7081262   0.75430109 -0.0043478723 -0.057557267  0.025270489    2.5199293    2.5087597    0.9201655        0.075     2.036886          0.5   0.10224061    4.8904246    2.5653415    34.671791 -0.0042326532  -0.37236465 -0.010458357   0.37756311    1.2282765    3.1952329 
  199000    5.0919994    1.5108165    3.5811829  -0.30026716    1.0073257    1.3016565   0.80314093   -3.7037037            3    2.8300335    3.7062522    3.8077755   0.97607282 -0.0048571677  -0.10398921  0.011878687    2.6799591    2.6611404   0.93245754        0.075    2.0406091          0.5   0.10360639     4.825957     2.545188    34.671791 0.00051212886  -0.34707012 0.00099938384   0.40279496   -2.2865022    3.4606126 
  200000     5.078029     1.511128    3.5669009  -0.28748039    1.0075334    1.2795156   0.81886727   -3.7037037            3    2.7681218    3.6869962    3.8002044   0.81716494 -0.012017304 0.0045849343  0.026177275    2.6151088    2.6021015   0.93532378        0.075    2.0293798          0.5   0.10392486    4.8111682    2.5741023    34.671791 0.0042898644  -0.35471267 -0.0099923755   0.37415497    3.3741837    3.4947359 
Loop time of 146.402 on 1 procs for 100000 steps with 8784 atoms

Performance: 295077.872 tau/day, 683.051 timesteps/s
99.3% CPU use with 1 MPI tasks x 1 OpenMP threads

MPI task timing breakdown:
Section |  min time  |  avg time  |  max time  |%varavg| %total
---------------------------------------------------------------
Pair    | 19.742     | 19.742     | 19.742     |   0.0 | 13.48
Bond    | 32.646     | 32.646     | 32.646     |   0.0 | 22.30
Neigh   | 56.527     | 56.527     | 56.527     |   0.0 | 38.61
Comm    | 2.9633     | 2.9633     | 2.9633     |   0.0 |  2.02
Output  | 0.18747    | 0.18747    | 0.18747    |   0.0 |  0.13
Modify  | 31.45      | 31.45      | 31.45      |   0.0 | 21.48
Other   |            | 2.887      |            |       |  1.97

Nlocal:    8784 ave 8784 max 8784 min
Histogram: 1 0 0 0 0 0 0 0 0 0
Nghost:    1857 ave 1857 max 1857 min
Histogram: 1 0 0 0 0 0 0 0 0 0
Neighs:    19443 ave 19443 max 19443 min
Histogram: 1 0 0 0 0 0 0 0 0 0

Total # of neighbors = 19443
Ave neighs/atom = 2.21346
Ave special neighs/atom = 6.72131
Neighbor list builds = 15417
Dangerous builds = 0
