9376
Atoms. Timestep: 4000000
1 30 3.55271e-15 10.9483
1 0.793701 29.2063 10.9483
1 0.844384 29.9269 10.0963
1 0.0476492 29.1829 10.0946
1 1.5874 3.55271e-15 10.9483
1 2.3811 29.2063 10.9483
1 2.40196 29.966 10.1181
1 1.63731 29.1882 10.1227
1 3.1748 3.55271e-15 10.9483
1 3.9685 29.2063 10.9483
1 3.96843 29.9209 10.1127
1 3.1757 29.1792 10.1425
1 4.7622 3.55271e-15 10.9483
1 5.5559 29.2063 10.9483
1 5.54594 29.9133 10.1128
1 4.75561 29.1696 10.1622
1 6.3496 3.55271e-15 10.9483
1 7.1433 29.2063 10.9483
1 7.12709 29.9383 10.1146
1 6.33627 29.189 10.1372
1 7.93701 3.55271e-15 10.9483
1 8.73071 29.2063 10.9483
1 8.71392 29.9186 10.1489
1 7.93849 29.187 10.1344
1 9.52441 3.55271e-15 10.9483
1 10.3181 29.2063 10.9483
1 10.3053 29.943 10.1113
1 9.50907 29.1902 10.1393
1 11.1118 3.55271e-15 10.9483
1 11.9055 29.2063 10.9483
1 11.8949 29.9352 10.1104
1 11.0949 29.1731 10.1632
1 12.6992 3.55271e-15 10.9483
1 13.4929 29.2063 10.9483
1 13.4885 29.9387 10.1111
1 12.6862 29.1607 10.1716
1 14.2866 3.55271e-15 10.9483
1 15.0803 29.2063 10.9483
1 15.0761 29.9294 10.1222
1 14.2627 29.1544 10.1685
1 15.874 3.55271e-15 10.9483
1 16.6677 29.2063 10.9483
1 16.6596 29.9493 10.1192
1 15.8716 29.1611 10.1421
1 17.4614 3.55271e-15 10.9483
1 18.2551 29.2063 10.9483
1 18.2467 29.9353 10.105
1 17.465 29.1722 10.1256
1 19.0488 3.55271e-15 10.9483
1 19.8425 29.2063 10.9483
1 19.8207 29.9341 10.1224
1 19.0378 29.1542 10.1199
1 20.6362 3.55271e-15 10.9483
1 21.4299 29.2063 10.9483
1 21.4333 29.9541 10.1359
1 20.6311 29.174 10.1451
1 22.2236 3.55271e-15 10.9483
1 23.0173 29.2063 10.9483
1 23.0188 29.9161 10.1426
1 22.2294 29.1949 10.1592
1 23.811 3.55271e-15 10.9483
1 24.6047 29.2063 10.9483
1 24.6173 29.939 10.114
1 23.81 29.1609 10.1426
1 25.3984 3.55271e-15 10.9483
1 26.1921 29.2063 10.9483
1 26.1788 29.9326 10.1297
1 25.3896 29.1668 10.1453
1 26.9858 3.55271e-15 10.9483
1 27.7795 29.2063 10.9483
1 27.7709 29.9286 10.1208
1 26.9624 29.1724 10.1677
1 28.5732 3.55271e-15 10.9483
1 29.3669 29.2063 10.9483
1 29.3011 29.9284 10.0874
1 28.5339 29.1816 10.1226
1 30 28.4126 10.9483
1 0.793701 27.6189 10.9483
1 0.83848 28.4296 10.1173
1 0.072297 27.6087 10.1077
1 1.5874 28.4126 10.9483
1 2.3811 27.6189 10.9483
1 2.39257 28.405 10.1594
1 1.59401 27.6121 10.123
1 3.1748 28.4126 10.9483
1 3.9685 27.6189 10.9483
1 3.97469 28.3876 10.17
1 3.17438 27.603 10.1684
1 4.7622 28.4126 10.9483
1 5.5559 27.6189 10.9483
1 5.53877 28.3825 10.1649
1 4.75625 27.6114 10.1756
1 6.3496 28.4126 10.9483
1 7.1433 27.6189 10.9483
1 7.12688 28.3978 10.1712
1 6.35304 27.606 10.1813
1 7.93701 28.4126 10.9483
1 8.73071 27.6189 10.9483
1 8.73203 28.4012 10.1586
1 7.92985 27.564 10.1701
1 9.52441 28.4126 10.9483
1 10.3181 27.6189 10.9483
1 10.3075 28.4132 10.151
1 9.51995 27.623 10.1666
1 11.1118 28.4126 10.9483
1 11.9055 27.6189 10.9483
1 11.9113 28.3911 10.1624
1 11.1176 27.6189 10.1566
1 12.6992 28.4126 10.9483
1 13.4929 27.6189 10.9483
1 13.4923 28.3951 10.1365
1 12.7095 27.6199 10.1491
1 14.2866 28.4126 10.9483
1 15.0803 27.6189 10.9483
1 15.0661 28.3777 10.1498
1 14.2893 27.6012 10.1663
1 15.874 28.4126 10.9483
1 16.6677 27.6189 10.9483
1 16.6701 28.3899 10.1649
1 15.8634 27.6317 10.1439
1 17.4614 28.4126 10.9483
1 18.2551 27.6189 10.9483
1 18.2357 28.4096 10.1159
1 17.4676 27.5957 10.1571
1 19.0488 28.4126 10.9483
1 19.8425 27.6189 10.9483
1 19.8295 28.4289 10.1416
1 19.0512 27.6355 10.146
1 20.6362 28.4126 10.9483
1 21.4299 27.6189 10.9483
1 21.4073 28.4035 10.1462
1 20.6309 27.6279 10.1633
1 22.2236 28.4126 10.9483
1 23.0173 27.6189 10.9483
1 22.9856 28.393 10.1427
1 22.1951 27.6003 10.1644
1 23.811 28.4126 10.9483
1 24.6047 27.6189 10.9483
1 24.5998 28.3971 10.1656
1 23.804 27.6 10.1678
1 25.3984 28.4126 10.9483
1 26.1921 27.6189 10.9483
1 26.1794 28.3785 10.1589
1 25.3657 27.5909 10.16
1 26.9858 28.4126 10.9483
1 27.7795 27.6189 10.9483
1 27.766 28.3797 10.1422
1 26.9513 27.616 10.1499
1 28.5732 28.4126 10.9483
1 29.3669 27.6189 10.9483
1 29.3197 28.3927 10.1317
1 28.5572 27.6287 10.1545
1 30 26.8252 10.9483
1 0.793701 26.0315 10.9483
1 0.81693 26.8139 10.1564
1 0.0442297 26.0083 10.104
1 1.5874 26.8252 10.9483
1 2.3811 26.0315 10.9483
1 2.39315 26.8071 10.1581
1 1.58654 26.028 10.1653
1 3.1748 26.8252 10.9483
1 3.9685 26.0315 10.9483
1 3.94685 26.8251 10.1776
1 3.15394 26.0096 10.1685
1 4.7622 26.8252 10.9483
1 5.5559 26.0315 10.9483
1 5.55356 26.8261 10.1832
1 4.7541 26.024 10.1654
1 6.3496 26.8252 10.9483
1 7.1433 26.0315 10.9483
1 7.16061 26.7994 10.1597
1 6.33605 26.0098 10.1644
1 7.93701 26.8252 10.9483
1 8.73071 26.0315 10.9483
1 8.73042 26.7887 10.1447
1 7.92675 25.9946 10.1655
1 9.52441 26.8252 10.9483
1 10.3181 26.0315 10.9483
1 10.3275 26.8549 10.1578
1 9.52631 25.996 10.1646
1 11.1118 26.8252 10.9483
1 11.9055 26.0315 10.9483
1 11.8972 26.81 10.1607
1 11.0963 26.0233 10.1318
1 12.6992 26.8252 10.9483
1 13.4929 26.0315 10.9483
1 13.4728 26.8228 10.1428
1 12.6797 26.0337 10.169
1 14.2866 26.8252 10.9483
1 15.0803 26.0315 10.9483
1 15.1092 26.8246 10.1413
1 14.2716 26.0521 10.1492
1 15.874 26.8252 10.9483
1 16.6677 26.0315 10.9483
1 16.6519 26.8149 10.1542
1 15.8642 26.0121 10.1699
1 17.4614 26.8252 10.9483
1 18.2551 26.0315 10.9483
1 18.2473 26.8023 10.1419
1 17.4706 26.0313 10.1505
1 19.0488 26.8252 10.9483
1 19.8425 26.0315 10.9483
1 19.8668 26.8148 10.1771
1 19.0604 26.0318 10.153
1 20.6362 26.8252 10.9483
1 21.4299 26.0315 10.9483
1 21.4405 26.7956 10.1663
1 20.6338 26.0094 10.1676
1 22.2236 26.8252 10.9483
1 23.0173 26.0315 10.9483
1 22.9975 26.8198 10.1662
1 22.2343 26.0315 10.1733
1 23.811 26.8252 10.9483
1 24.6047 26.0315 10.9483
1 24.5973 26.8291 10.1713
1 23.8154 26.0397 10.1897
1 25.3984 26.8252 10.9483
1 26.1921 26.0315 10.9483
1 26.1707 26.8243 10.1692
1 25.3916 26.0027 10.14
1 26.9858 26.8252 10.9483
1 27.7795 26.0315 10.9483
1 27.7567 26.8266 10.1693
1 26.9958 26.0202 10.1703
1 28.5732 26.8252 10.9483
1 29.3669 26.0315 10.9483
1 29.3262 26.8494 10.1454
1 28.5325 26.0586 10.1681
1 30 25.2378 10.9483
1 0.793701 24.4441 10.9483
1 0.832432 25.2428 10.1608
1 0.051777 24.4503 10.1171
1 1.5874 25.2378 10.9483
1 2.3811 24.4441 10.9483
1 2.3837 25.2306 10.1396
1 1.62422 24.4443 10.1562
1 3.1748 25.2378 10.9483
1 3.9685 24.4441 10.9483
1 3.9415 25.2515 10.1744
1 3.18567 24.4393 10.1704
1 4.7622 25.2378 10.9483
1 5.5559 24.4441 10.9483
1 5.5819 25.2405 10.1544
1 4.75686 24.4476 10.1594
1 6.3496 25.2378 10.9483
1 7.1433 24.4441 10.9483
1 7.14515 25.2711 10.1579
1 6.33533 24.4718 10.1565
1 7.93701 25.2378 10.9483
1 8.73071 24.4441 10.9483
1 8.73981 25.237 10.175
1 7.92846 24.4342 10.1753
1 9.52441 25.2378 10.9483
1 10.3181 24.4441 10.9483
1 10.3002 25.2406 10.1687
1 9.52382 24.4481 10.1791
1 11.1118 25.2378 10.9483
1 11.9055 24.4441 10.9483
1 11.9038 25.2116 10.1323
1 11.114 24.4541 10.1631
1 12.6992 25.2378 10.9483
1 13.4929 24.4441 10.9483
1 13.4806 25.2436 10.1575
1 12.7055 24.4317 10.1718
1 14.2866 25.2378 10.9483
1 15.0803 24.4441 10.9483
1 15.0718 25.2491 10.1341
1 14.2849 24.4288 10.1467
1 15.874 25.2378 10.9483
1 16.6677 24.4441 10.9483
1 16.6751 25.2449 10.1692
1 15.9033 24.4635 10.136
1 17.4614 25.2378 10.9483
1 18.2551 24.4441 10.9483
1 18.2383 25.244 10.1624
1 17.4516 24.434 10.1643
1 19.0488 25.2378 10.9483
1 19.8425 24.4441 10.9483
1 19.8176 25.234 10.1587
1 19.0194 24.4268 10.1703
1 20.6362 25.2378 10.9483
1 21.4299 24.4441 10.9483
1 21.4195 25.2404 10.1626
1 20.6314 24.4447 10.146
1 22.2236 25.2378 10.9483
1 23.0173 24.4441 10.9483
1 23.0129 25.2488 10.1456
1 22.2216 24.4156 10.1466
1 23.811 25.2378 10.9483
1 24.6047 24.4441 10.9483
1 24.613 25.2175 10.1606
1 23.8121 24.4593 10.1788
1 25.3984 25.2378 10.9483
1 26.1921 24.4441 10.9483
1 26.1689 25.2343 10.1805
1 25.3968 24.4369 10.1803
1 26.9858 25.2378 10.9483
1 27.7795 24.4441 10.9483
1 27.7658 25.2219 10.1504
1 26.9752 24.4484 10.1585
1 28.5732 25.2378 10.9483
1 29.3669 24.4441 10.9483
1 29.2882 25.2361 10.1206
1 28.5512 24.4258 10.1096
1 30 23.6504 10.9483
1 0.793701 22.8567 10.9483
1 0.838848 23.65 10.1431
1 0.0777685 22.8513 10.1219
1 1.5874 23.6504 10.9483
1 2.3811 22.8567 10.9483
1 2.39308 23.6395 10.1543
1 1.61043 22.8613 10.1404
1 3.1748 23.6504 10.9483
1 3.9685 22.8567 10.9483
1 3.96373 23.6433 10.1582
1 3.18536 22.8734 10.1503
1 4.7622 23.6504 10.9483
1 5.5559 22.8567 10.9483
1 5.55421 23.6604 10.1755
1 4.76688 22.8658 10.1512
1 6.3496 23.6504 10.9483
1 7.1433 22.8567 10.9483
1 7.12474 23.6593 10.1569
1 6.35621 22.8524 10.1454
1 7.93701 23.6504 10.9483
1 8.73071 22.8567 10.9483
1 8.70169 23.6499 10.1877
1 7.94675 22.8421 10.1692
1 9.52441 23.6504 10.9483
1 10.3181 22.8567 10.9483
1 10.3365 23.6809 10.1342
1 9.53105 22.857 10.1536
1 11.1118 23.6504 10.9483
1 11.9055 22.8567 10.9483
1 11.8762 23.6537 10.1702
1 11.1014 22.8599 10.1467
1 12.6992 23.6504 10.9483
1 13.4929 22.8567 10.9483
1 13.5019 23.6448 10.165
1 12.6767 22.845 10.1806
1 14.2866 23.6504 10.9483
1 15.0803 22.8567 10.9483
1 15.0922 23.6542 10.1502
1 14.2919 22.8361 10.1611
1 15.874 23.6504 10.9483
1 16.6677 22.8567 10.9483
1 16.6863 23.6297 10.1276
1 15.8881 22.8369 10.1568
1 17.4614 23.6504 10.9483
1 18.2551 22.8567 10.9483
1 18.2466 23.6599 10.1827
1 17.4537 22.833 10.1447
1 19.0488 23.6504 10.9483
1 19.8425 22.8567 10.9483
1 19.8132 23.6557 10.1445
1 19.0393 22.8699 10.1414
1 20.6362 23.6504 10.9483
1 21.4299 22.8567 10.9483
1 21.432 23.6576 10.1654
1 20.6087 22.8559 10.1239
1 22.2236 23.6504 10.9483
1 23.0173 22.8567 10.9483
1 23.0169 23.6634 10.1723
1 22.2246 22.8778 10.1606
1 23.811 23.6504 10.9483
1 24.6047 22.8567 10.9483
1 24.6078 23.6427 10.1545
1 23.804 22.8537 10.1543
1 25.3984 23.6504 10.9483
1 26.1921 22.8567 10.9483
1 26.2106 23.6456 10.1502
1 25.4045 22.8478 10.1557
1 26.9858 23.6504 10.9483
1 27.7795 22.8567 10.9483
1 27.758 23.6621 10.163
1 26.9658 22.8244 10.1543
1 28.5732 23.6504 10.9483
1 29.3669 22.8567 10.9483
1 29.3017 23.631 10.1286
1 28.5186 22.8354 10.1486
1 30 22.063 10.9483
1 0.793701 21.2693 10.9483
1 0.819506 22.0688 10.1378
1 0.0578073 21.2713 10.1191
1 1.5874 22.063 10.9483
1 2.3811 21.2693 10.9483
1 2.37526 22.0823 10.1491
1 1.59066 21.2635 10.1654
1 3.1748 22.063 10.9483
1 3.9685 21.2693 10.9483
1 3.97482 22.0926 10.1724
1 3.17346 21.2765 10.1558
1 4.7622 22.063 10.9483
1 5.5559 21.2693 10.9483
1 5.54474 22.0499 10.196
1 4.75788 21.2552 10.1583
1 6.3496 22.063 10.9483
1 7.1433 21.2693 10.9483
1 7.12462 22.055 10.1684
1 6.33301 21.267 10.158
1 7.93701 22.063 10.9483
1 8.73071 21.2693 10.9483
1 8.75143 22.0708 10.1464
1 7.92356 21.2905 10.1775
1 9.52441 22.063 10.9483
1 10.3181 21.2693 10.9483
1 10.3057 22.0624 10.1601
1 9.51895 21.2618 10.1534
1 11.1118 22.063 10.9483
1 11.9055 21.2693 10.9483
1 11.8843 22.0554 10.1802
1 11.111 21.2487 10.1295
1 12.6992 22.063 10.9483
1 13.4929 21.2693 10.9483
1 13.4758 22.0612 10.1625
1 12.6775 21.2662 10.1629
1 14.2866 22.063 10.9483
1 15.0803 21.2693 10.9483
1 15.084 22.0486 10.1638
1 14.2589 21.2808 10.1609
1 15.874 22.063 10.9483
1 16.6677 21.2693 10.9483
1 16.6588 22.0491 10.118
1 15.8612 21.2626 10.1498
1 17.4614 22.063 10.9483
1 18.2551 21.2693 10.9483
1 18.2436 22.0311 10.1411
1 17.4847 21.2376 10.1323
1 19.0488 22.063 10.9483
1 19.8425 21.2693 10.9483
1 19.8196 22.0598 10.1711
1 19.0742 21.268 10.1502
1 20.6362 22.063 10.9483
1 21.4299 21.2693 10.9483
1 21.3976 22.0609 10.1522
1 20.6206 21.256 10.1634
1 22.2236 22.063 10.9483
1 23.0173 21.2693 10.9483
1 23.0211 22.0604 10.1549
1 22.2004 21.2646 10.1412
1 23.811 22.063 10.9483
1 24.6047 21.2693 10.9483
1 24.5907 22.0612 10.1453
1 23.7997 21.2693 10.1469
1 25.3984 22.063 10.9483
1 26.1921 21.2693 10.9483
1 26.1659 22.0558 10.1612
1 25.3872 21.2782 10.1849
1 26.9858 22.063 10.9483
1 27.7795 21.2693 10.9483
1 27.7485 22.0463 10.145
1 26.9593 21.2776 10.1771
1 28.5732 22.063 10.9483
1 29.3669 21.2693 10.9483
1 29.3057 22.0632 10.0977
1 28.5365 21.2487 10.1491
1 30 20.4756 10.9483
1 0.793701 19.6819 10.9483
1 0.82698 20.4633 10.1464
1 0.053617 19.6614 10.1306
1 1.5874 20.4756 10.9483
1 2.3811 19.6819 10.9483
1 2.4 20.4753 10.1438
1 1.62599 19.7 10.1392
1 3.1748 20.4756 10.9483
1 3.9685 19.6819 10.9483
1 3.94945 20.4693 10.1806
1 3.16542 19.696 10.1693
1 4.7622 20.4756 10.9483
1 5.5559 19.6819 10.9483
1 5.55556 20.4793 10.14
1 4.77102 19.6623 10.1654
1 6.3496 20.4756 10.9483
1 7.1433 19.6819 10.9483
1 7.15975 20.4547 10.1562
1 6.34259 19.6529 10.1546
1 7.93701 20.4756 10.9483
1 8.73071 19.6819 10.9483
1 8.71995 20.4599 10.1344
1 7.965 19.6548 10.169
1 9.52441 20.4756 10.9483
1 10.3181 19.6819 10.9483
1 10.317 20.4691 10.1665
1 9.54466 19.7021 10.1544
1 11.1118 20.4756 10.9483
1 11.9055 19.6819 10.9483
1 11.8994 20.4554 10.1309
1 11.0983 19.7085 10.1467
1 12.6992 20.4756 10.9483
1 13.4929 19.6819 10.9483
1 13.493 20.4842 10.1746
1 12.6881 19.6677 10.1585
1 14.2866 20.4756 10.9483
1 15.0803 19.6819 10.9483
1 15.0591 20.5079 10.1587
1 14.2993 19.6875 10.151
1 15.874 20.4756 10.9483
1 16.6677 19.6819 10.9483
1 16.6299 20.4671 10.1585
1 15.8414 19.6987 10.1488
1 17.4614 20.4756 10.9483
1 18.2551 19.6819 10.9483
1 18.2978 20.4462 10.1441
1 17.4492 19.6875 10.1554
1 19.0488 20.4756 10.9483
1 19.8425 19.6819 10.9483
1 19.8766 20.4798 10.1421
1 19.0831 19.6779 10.1457
1 20.6362 20.4756 10.9483
1 21.4299 19.6819 10.9483
1 21.4239 20.4835 10.1595
1 20.637 19.6645 10.1392
1 22.2236 20.4756 10.9483
1 23.0173 19.6819 10.9483
1 23.0046 20.5008 10.1583
1 22.1671 19.7091 10.157
1 23.811 20.4756 10.9483
1 24.6047 19.6819 10.9483
1 24.599 20.4805 10.1668
1 23.7844 19.7261 10.153
1 25.3984 20.4756 10.9483
1 26.1921 19.6819 10.9483
1 26.1853 20.4837 10.136
1 25.3952 19.6977 10.1419
1 26.9858 20.4756 10.9483
1 27.7795 19.6819 10.9483
1 27.7454 20.4681 10.1664
1 26.9559 19.6959 10.1309
1 28.5732 20.4756 10.9483
1 29.3669 19.6819 10.9483
1 29.2877 20.4652 10.0982
1 28.5069 19.6761 10.1448
1 30 18.8882 10.9483
1 0.793701 18.0945 10.9483
1 0.840817 18.8959 10.1466
1 0.0630378 18.0967 10.1279
1 1.5874 18.8882 10.9483
1 2.3811 18.0945 10.9483
1 2.39031 18.8835 10.1522
1 1.61213 18.1011 10.1553
1 3.1748 18.8882 10.9483
1 3.9685 18.0945 10.9483
1 3.96516 18.8996 10.1555
1 3.18379 18.1118 10.1605
1 4.7622 18.8882 10.9483
1 5.5559 18.0945 10.9483
1 5.55411 18.8859 10.1758
1 4.75539 18.0868 10.1543
1 6.3496 18.8882 10.9483
1 7.1433 18.0945 10.9483
1 7.16492 18.8641 10.161
1 6.34948 18.119 10.1564
1 7.93701 18.8882 10.9483
1 8.73071 18.0945 10.9483
1 8.76298 18.8971 10.1672
1 7.96129 18.0835 10.1692
1 9.52441 18.8882 10.9483
1 10.3181 18.0945 10.9483
1 10.3267 18.905 10.1662
1 9.52292 18.1173 10.1531
1 11.1118 18.8882 10.9483
1 11.9055 18.0945 10.9483
1 11.9094 18.8863 10.1576
1 11.1186 18.0915 10.1505
1 12.6992 18.8882 10.9483
1 13.4929 18.0945 10.9483
1 13.4876 18.9053 10.1615
1 12.7023 18.1268 10.1581
1 14.2866 18.8882 10.9483
1 15.0803 18.0945 10.9483
1 15.0455 18.8777 10.1549
1 14.27 18.0913 10.1527
1 15.874 18.8882 10.9483
1 16.6677 18.0945 10.9483
1 16.6473 18.9001 10.1433
1 15.8739 18.0948 10.1495
1 17.4614 18.8882 10.9483
1 18.2551 18.0945 10.9483
1 18.2588 18.9096 10.158
1 17.4668 18.0848 10.1524
1 19.0488 18.8882 10.9483
1 19.8425 18.0945 10.9483
1 19.8418 18.8722 10.1558
1 19.0517 18.0942 10.1569
1 20.6362 18.8882 10.9483
1 21.4299 18.0945 10.9483
1 21.4247 18.8787 10.1346
1 20.6268 18.0814 10.1353
1 22.2236 18.8882 10.9483
1 23.0173 18.0945 10.9483
1 23.0189 18.8567 10.1754
1 22.2009 18.0804 10.1764
1 23.811 18.8882 10.9483
1 24.6047 18.0945 10.9483
1 24.5985 18.8715 10.1452
1 23.801 18.0837 10.1837
1 25.3984 18.8882 10.9483
1 26.1921 18.0945 10.9483
1 26.1813 18.8789 10.1417
1 25.3891 18.0718 10.1517
1 26.9858 18.8882 10.9483
1 27.7795 18.0945 10.9483
1 27.779 18.8835 10.1464
1 26.9617 18.1193 10.1492
1 28.5732 18.8882 10.9483
1 29.3669 18.0945 10.9483
1 29.3229 18.8938 10.116
1 28.566 18.1117 10.1355
1 30 17.3008 10.9483
1 0.793701 16.5071 10.9483
1 0.828942 17.3091 10.167
1 0.053889 16.5005 10.1388
1 1.5874 17.3008 10.9483
1 2.3811 16.5071 10.9483
1 2.41141 17.3332 10.1552
1 1.59667 16.5083 10.1658
1 3.1748 17.3008 10.9483
1 3.9685 16.5071 10.9483
1 3.98882 17.2906 10.1541
1 3.16891 16.5217 10.1534
1 4.7622 17.3008 10.9483
1 5.5559 16.5071 10.9483
1 5.58764 17.2904 10.1573
1 4.77339 16.5266 10.1549
1 6.3496 17.3008 10.9483
1 7.1433 16.5071 10.9483
1 7.16482 17.3212 10.1752
1 6.35903 16.5131 10.1489
1 7.93701 17.3008 10.9483
1 8.73071 16.5071 10.9483
1 8.75392 17.3026 10.162
1 7.93576 16.5075 10.1598
1 9.52441 17.3008 10.9483
1 10.3181 16.5071 10.9483
1 10.3218 17.333 10.1614
1 9.52109 16.5169 10.1516
1 11.1118 17.3008 10.9483
1 11.9055 16.5071 10.9483
1 11.9089 17.308 10.1365
1 11.1135 16.5327 10.1394
1 12.6992 17.3008 10.9483
1 13.4929 16.5071 10.9483
1 13.467 17.3152 10.1793
1 12.6738 16.5261 10.1164
1 14.2866 17.3008 10.9483
1 15.0803 16.5071 10.9483
1 15.0696 17.3015 10.1544
1 14.2632 16.5226 10.1422
1 15.874 17.3008 10.9483
1 16.6677 16.5071 10.9483
1 16.6533 17.2934 10.162
1 15.8556 16.5007 10.153
1 17.4614 17.3008 10.9483
1 18.2551 16.5071 10.9483
1 18.2535 17.2868 10.1635
1 17.4456 16.5027 10.157
1 19.0488 17.3008 10.9483
1 19.8425 16.5071 10.9483
1 19.8141 17.316 10.1553
1 19.0235 16.5039 10.1591
1 20.6362 17.3008 10.9483
1 21.4299 16.5071 10.9483
1 21.3988 17.2929 10.1725
1 20.6266 16.5187 10.1298
1 22.2236 17.3008 10.9483
1 23.0173 16.5071 10.9483
1 23.0081 17.2929 10.1604
1 22.1997 16.5073 10.1323
1 23.811 17.3008 10.9483
1 24.6047 16.5071 10.9483
1 24.6043 17.3068 10.1296
1 23.7989 16.5397 10.1455
1 25.3984 17.3008 10.9483
1 26.1921 16.5071 10.9483
1 26.2101 17.2853 10.1663
1 25.3792 16.5163 10.1444
1 26.9858 17.3008 10.9483
1 27.7795 16.5071 10.9483
1 27.7676 17.2913 10.1533
1 26.9815 16.504 10.1587
1 28.5732 17.3008 10.9483
1 29.3669 16.5071 10.9483
1 29.283 17.3241 10.1196
1 28.5533 16.5155 10.1336
1 30 15.7134 10.9483
1 0.793701 14.9197 10.9483
1 0.835569 15.7086 10.1358
1 0.085054 14.9089 10.1221
1 1.5874 15.7134 10.9483
1 2.3811 14.9197 10.9483
1 2.4041 15.7289 10.1522
1 1.61842 14.9365 10.1369
1 3.1748 15.7134 10.9483
1 3.9685 14.9197 10.9483
1 3.98102 15.7235 10.1635
1 3.18414 14.9246 10.1415
1 4.7622 15.7134 10.9483
1 5.5559 14.9197 10.9483
1 5.54981 15.7345 10.1527
1 4.76878 14.934 10.156
1 6.3496 15.7134 10.9483
1 7.1433 14.9197 10.9483
1 7.16519 15.7139 10.1581
1 6.34234 14.9353 10.1428
1 7.93701 15.7134 10.9483
1 8.73071 14.9197 10.9483
1 8.72513 15.6982 10.1359
1 7.91498 14.9061 10.1487
1 9.52441 15.7134 10.9483
1 10.3181 14.9197 10.9483
1 10.3237 15.7346 10.1564
1 9.51749 14.9185 10.147
1 11.1118 15.7134 10.9483
1 11.9055 14.9197 10.9483
1 11.8803 15.7438 10.1367
1 11.1166 14.9204 10.145
1 12.6992 15.7134 10.9483
1 13.4929 14.9197 10.9483
1 13.464 15.702 10.1524
1 12.6851 14.9241 10.1592
1 14.2866 15.7134 10.9483
1 15.0803 14.9197 10.9483
1 15.0678 15.7248 10.1401
1 14.2788 14.9022 10.1797
1 15.874 15.7134 10.9483
1 16.6677 14.9197 10.9483
1 16.6578 15.7071 10.1506
1 15.8468 14.9039 10.159
1 17.4614 15.7134 10.9483
1 18.2551 14.9197 10.9483
1 18.2498 15.7155 10.1901
1 17.4397 14.889 10.1573
1 19.0488 15.7134 10.9483
1 19.8425 14.9197 10.9483
1 19.8496 15.7025 10.1578
1 19.0591 14.9368 10.1629
1 20.6362 15.7134 10.9483
1 21.4299 14.9197 10.9483
1 21.4247 15.7076 10.1519
1 20.6459 14.8974 10.1821
1 22.2236 15.7134 10.9483
1 23.0173 14.9197 10.9483
1 23.0054 15.7329 10.1505
1 22.2164 14.9073 10.1422
1 23.811 15.7134 10.9483
1 24.6047 14.9197 10.9483
1 24.5919 15.7228 10.142
1 23.7971 14.9303 10.1455
1 25.3984 15.7134 10.9483
1 26.1921 14.9197 10.9483
1 26.1798 15.6843 10.1457
1 25.3592 14.9318 10.1571
1 26.9858 15.7134 10.9483
1 27.7795 14.9197 10.9483
1 27.7387 15.7426 10.1291
1 27.0053 14.9122 10.1805
1 28.5732 15.7134 10.9483
1 29.3669 14.9197 10.9483
1 29.2782 15.7175 10.1046
1 28.5412 14.9458 10.1283
1 30 14.126 10.9483
1 0.793701 13.3323 10.9483
1 0.829752 14.1194 10.1591
1 0.0464234 13.3325 10.1331
1 1.5874 14.126 10.9483
1 2.3811 13.3323 10.9483
1 2.37736 14.1239 10.1523
1 1.62501 13.3243 10.1541
1 3.1748 14.126 10.9483
1 3.9685 13.3323 10.9483
1 3.95836 14.144 10.1421
1 3.19983 13.344 10.1546
1 4.7622 14.126 10.9483
1 5.5559 13.3323 10.9483
1 5.53445 14.1342 10.1533
1 4.78156 13.3482 10.151
1 6.3496 14.126 10.9483
1 7.1433 13.3323 10.9483
1 7.14764 14.1016 10.1538
1 6.34756 13.3062 10.1303
1 7.93701 14.126 10.9483
1 8.73071 13.3323 10.9483
1 8.74074 14.124 10.1525
1 7.941 13.3186 10.1589
1 9.52441 14.126 10.9483
1 10.3181 13.3323 10.9483
1 10.3356 14.1503 10.1627
1 9.54359 13.3208 10.1584
1 11.1118 14.126 10.9483
1 11.9055 13.3323 10.9483
1 11.9316 14.1144 10.1371
1 11.1148 13.3263 10.1587
1 12.6992 14.126 10.9483
1 13.4929 13.3323 10.9483
1 13.4935 14.1297 10.1305
1 12.7102 13.3023 10.1443
1 14.2866 14.126 10.9483
1 15.0803 13.3323 10.9483
1 15.0568 14.1117 10.1764
1 14.2801 13.3378 10.1839
1 15.874 14.126 10.9483
1 16.6677 13.3323 10.9483
1 16.6681 14.1208 10.1616
1 15.8807 13.3374 10.1456
1 17.4614 14.126 10.9483
1 18.2551 13.3323 10.9483
1 18.2667 14.1402 10.1593
1 17.4702 13.347 10.1757
1 19.0488 14.126 10.9483
1 19.8425 13.3323 10.9483
1 19.8343 14.1638 10.1512
1 19.0511 13.328 10.1378
1 20.6362 14.126 10.9483
1 21.4299 13.3323 10.9483
1 21.4231 14.1447 10.1478
1 20.5993 13.3428 10.1565
1 22.2236 14.126 10.9483
1 23.0173 13.3323 10.9483
1 23.0224 14.1486 10.1458
1 22.2192 13.3419 10.1452
1 23.811 14.126 10.9483
1 24.6047 13.3323 10.9483
1 24.6241 14.1574 10.1434
1 23.7965 13.3332 10.1447
1 25.3984 14.126 10.9483
1 26.1921 13.3323 10.9483
1 26.1871 14.1478 10.184
1 25.3949 13.325 10.1526
1 26.9858 14.126 10.9483
1 27.7795 13.3323 10.9483
1 27.7632 14.1383 10.1318
1 26.9532 13.3398 10.1372
1 28.5732 14.126 10.9483
1 29.3669 13.3323 10.9483
1 29.3069 14.1057 10.1083
1 28.5218 13.3175 10.1282
1 30 12.5386 10.9483
1 0.793701 11.7449 10.9483
1 0.801286 12.5436 10.1519
1 0.0509409 11.732 10.1155
1 1.5874 12.5386 10.9483
1 2.3811 11.7449 10.9483
1 2.38639 12.5421 10.1825
1 1.57991 11.7668 10.1837
1 3.1748 12.5386 10.9483
1 3.9685 11.7449 10.9483
1 3.9967 12.5254 10.1605
1 3.16896 11.7561 10.1655
1 4.7622 12.5386 10.9483
1 5.5559 11.7449 10.9483
1 5.56212 12.5284 10.152
1 4.76456 11.7293 10.1612
1 6.3496 12.5386 10.9483
1 7.1433 11.7449 10.9483
1 7.13411 12.5376 10.1594
1 6.35655 11.7333 10.1516
1 7.93701 12.5386 10.9483
1 8.73071 11.7449 10.9483
1 8.73545 12.5079 10.159
1 7.93344 11.7356 10.1421
1 9.52441 12.5386 10.9483
1 10.3181 11.7449 10.9483
1 10.3276 12.5252 10.1572
1 9.53928 11.7309 10.1321
1 11.1118 12.5386 10.9483
1 11.9055 11.7449 10.9483
1 11.8975 12.5436 10.148
1 11.1248 11.7517 10.1449
1 12.6992 12.5386 10.9483
1 13.4929 11.7449 10.9483
1 13.4982 12.5452 10.1494
1 12.6893 11.761 10.1645
1 14.2866 12.5386 10.9483
1 15.0803 11.7449 10.9483
1 15.1154 12.5231 10.1476
1 14.2936 11.7416 10.1681
1 15.874 12.5386 10.9483
1 16.6677 11.7449 10.9483
1 16.6658 12.5667 10.1598
1 15.8896 11.7251 10.169
1 17.4614 12.5386 10.9483
1 18.2551 11.7449 10.9483
1 18.2323 12.5413 10.1506
1 17.4559 11.738 10.1461
1 19.0488 12.5386 10.9483
1 19.8425 11.7449 10.9483
1 19.8491 12.5327 10.1393
1 19.0381 11.756 10.169
1 20.6362 12.5386 10.9483
1 21.4299 11.7449 10.9483
1 21.4066 12.5271 10.145
1 20.6321 11.7268 10.1469
1 22.2236 12.5386 10.9483
1 23.0173 11.7449 10.9483
1 23.0256 12.5237 10.1585
1 22.2288 11.7242 10.1459
1 23.811 12.5386 10.9483
1 24.6047 11.7449 10.9483
1 24.6022 12.5085 10.1654
1 23.7974 11.714 10.1486
1 25.3984 12.5386 10.9483
1 26.1921 11.7449 10.9483
1 26.1495 12.5386 10.1648
1 25.3679 11.7695 10.1581
1 26.9858 12.5386 10.9483
1 27.7795 11.7449 10.9483
1 27.746 12.5414 10.139
1 26.9518 11.7524 10.1524
1 28.5732 12.5386 10.9483
1 29.3669 11.7449 10.9483
1 29.2976 12.5214 10.1121
1 28.5177 11.7441 10.1447
1 30 10.9512 10.9483
1 0.793701 10.1575 10.9483
1 0.81508 10.9499 10.1524
1 0.0322277 10.1598 10.121
1 1.5874 10.9512 10.9483
1 2.3811 10.1575 10.9483
1 2.35894 10.9708 10.1722
1 1.58754 10.1632 10.1624
1 3.1748 10.9512 10.9483
1 3.9685 10.1575 10.9483
1 3.99179 10.94 10.1601
1 3.1687 10.1551 10.172
1 4.7622 10.9512 10.9483
1 5.5559 10.1575 10.9483
1 5.53869 10.9424 10.1227
1 4.77793 10.1397 10.1826
1 6.3496 10.9512 10.9483
1 7.1433 10.1575 10.9483
1 7.15541 10.944 10.1542
1 6.33803 10.1835 10.1683
1 7.93701 10.9512 10.9483
1 8.73071 10.1575 10.9483
1 8.7396 10.9424 10.1537
1 7.91201 10.1774 10.1568
1 9.52441 10.9512 10.9483
1 10.3181 10.1575 10.9483
1 10.3375 10.9498 10.175
1 9.53302 10.1743 10.1494
1 11.1118 10.9512 10.9483
1 11.9055 10.1575 10.9483
1 11.9025 10.947 10.1667
1 11.0901 10.1729 10.1467
1 12.6992 10.9512 10.9483
1 13.4929 10.1575 10.9483
1 13.4803 10.9425 10.1499
1 12.703 10.1648 10.1431
1 14.2866 10.9512 10.9483
1 15.0803 10.1575 10.9483
1 15.0831 10.9337 10.1476
1 14.2651 10.1913 10.1752
1 15.874 10.9512 10.9483
1 16.6677 10.1575 10.9483
1 16.6668 10.9572 10.1377
1 15.8606 10.1701 10.1534
1 17.4614 10.9512 10.9483
1 18.2551 10.1575 10.9483
1 18.2455 10.9703 10.1524
1 17.4538 10.1579 10.1484
1 19.0488 10.9512 10.9483
1 19.8425 10.1575 10.9483
1 19.8176 10.9472 10.162
1 19.0468 10.1679 10.146
1 20.6362 10.9512 10.9483
1 21.4299 10.1575 10.9483
1 21.397 10.9499 10.1695
1 20.6108 10.1606 10.1348
1 22.2236 10.9512 10.9483
1 23.0173 10.1575 10.9483
1 23.0244 10.9616 10.1697
1 22.2142 10.1751 10.1391
1 23.811 10.9512 10.9483
1 24.6047 10.1575 10.9483
1 24.5957 10.9492 10.1509
1 23.83 10.1401 10.1385
1 25.3984 10.9512 10.9483
1 26.1921 10.1575 10.9483
1 26.1818 10.9284 10.1726
1 25.3874 10.1688 10.1555
1 26.9858 10.9512 10.9483
1 27.7795 10.1575 10.9483
1 27.7756 10.9714 10.1705
1 26.977 10.1428 10.1278
1 28.5732 10.9512 10.9483
1 29.3669 10.1575 10.9483
1 29.2732 10.9539 10.124
1 28.5445 10.1603 10.1482
1 30 9.36379 10.9483
1 0.793701 8.57009 10.9483
1 0.837478 9.36366 10.1554
1 0.0717342 8.58123 10.1281
1 1.5874 9.36379 10.9483
1 2.3811 8.57009 10.9483
1 2.38757 9.39154 10.1536
1 1.60992 8.57037 10.1681
1 3.1748 9.36379 10.9483
1 3.9685 8.57009 10.9483
1 3.97912 9.35632 10.1349
1 3.17352 8.58005 10.1763
1 4.7622 9.36379 10.9483
1 5.5559 8.57009 10.9483
1 5.58526 9.37642 10.1581
1 4.77462 8.56178 10.1435
1 6.3496 9.36379 10.9483
1 7.1433 8.57009 10.9483
1 7.11703 9.3867 10.1727
1 6.35112 8.57799 10.1598
1 7.93701 9.36379 10.9483
1 8.73071 8.57009 10.9483
1 8.73346 9.36314 10.1436
1 7.95327 8.55811 10.1602
1 9.52441 9.36379 10.9483
1 10.3181 8.57009 10.9483
1 10.3252 9.349 10.1658
1 9.49183 8.55388 10.1432
1 11.1118 9.36379 10.9483
1 11.9055 8.57009 10.9483
1 11.9028 9.35832 10.1744
1 11.1104 8.55919 10.1533
1 12.6992 9.36379 10.9483
1 13.4929 8.57009 10.9483
1 13.4949 9.35229 10.1609
1 12.6853 8.54232 10.1508
1 14.2866 9.36379 10.9483
1 15.0803 8.57009 10.9483
1 15.0856 9.37377 10.168
1 14.2668 8.55954 10.1582
1 15.874 9.36379 10.9483
1 16.6677 8.57009 10.9483
1 16.6818 9.37983 10.1706
1 15.8826 8.57962 10.1717
1 17.4614 9.36379 10.9483
1 18.2551 8.57009 10.9483
1 18.27 9.35329 10.1479
1 17.476 8.57171 10.1829
1 19.0488 9.36379 10.9483
1 19.8425 8.57009 10.9483
1 19.8625 9.34816 10.1607
1 19.0507 8.59279 10.133
1 20.6362 9.36379 10.9483
1 21.4299 8.57009 10.9483
1 21.4066 9.37882 10.1596
1 20.6454 8.5624 10.1777
1 22.2236 9.36379 10.9483
1 23.0173 8.57009 10.9483
1 23.0223 9.37406 10.1629
1 22.2167 8.58896 10.1659
1 23.811 9.36379 10.9483
1 24.6047 8.57009 10.9483
1 24.6187 9.35888 10.1467
1 23.8213 8.57282 10.1741
1 25.3984 9.36379 10.9483
1 26.1921 8.57009 10.9483
1 26.1602 9.36042 10.1489
1 25.3908 8.57728 10.155
1 26.9858 9.36379 10.9483
1 27.7795 8.57009 10.9483
1 27.7659 9.36889 10.1359
1 26.9906 8.5748 10.1702
1 28.5732 9.36379 10.9483
1 29.3669 8.57009 10.9483
1 29.2842 9.34605 10.1136
1 28.5367 8.57012 10.1522
1 30 7.77639 10.9483
1 0.793701 6.98268 10.9483
1 0.799294 7.77772 10.1477
1 0.0716513 6.97277 10.1203
1 1.5874 7.77639 10.9483
1 2.3811 6.98268 10.9483
1 2.40537 7.76422 10.1567
1 1.60936 6.97639 10.1571
1 3.1748 7.77639 10.9483
1 3.9685 6.98268 10.9483
1 3.98822 7.7883 10.1703
1 3.19957 7.01456 10.173
1 4.7622 7.77639 10.9483
1 5.5559 6.98268 10.9483
1 5.56295 7.75925 10.1652
1 4.77207 6.98695 10.1494
1 6.3496 7.77639 10.9483
1 7.1433 6.98268 10.9483
1 7.1718 7.77559 10.1764
1 6.36285 6.9893 10.1513
1 7.93701 7.77639 10.9483
1 8.73071 6.98268 10.9483
1 8.72527 7.77281 10.1369
1 7.93167 6.98363 10.1661
1 9.52441 7.77639 10.9483
1 10.3181 6.98268 10.9483
1 10.2967 7.76473 10.1574
1 9.50694 7.00204 10.1409
1 11.1118 7.77639 10.9483
1 11.9055 6.98268 10.9483
1 11.9075 7.76528 10.1729
1 11.1126 6.95832 10.155
1 12.6992 7.77639 10.9483
1 13.4929 6.98268 10.9483
1 13.495 7.76906 10.1539
1 12.702 6.97254 10.1322
1 14.2866 7.77639 10.9483
1 15.0803 6.98268 10.9483
1 15.0655 7.75832 10.1878
1 14.2655 6.94954 10.1305
1 15.874 7.77639 10.9483
1 16.6677 6.98268 10.9483
1 16.6736 7.77745 10.1501
1 15.8574 6.98232 10.1568
1 17.4614 7.77639 10.9483
1 18.2551 6.98268 10.9483
1 18.2661 7.79223 10.1545
1 17.4917 7.00436 10.1523
1 19.0488 7.77639 10.9483
1 19.8425 6.98268 10.9483
1 19.8664 7.78388 10.147
1 19.0605 7.00297 10.1338
1 20.6362 7.77639 10.9483
1 21.4299 6.98268 10.9483
1 21.4449 7.79059 10.1635
1 20.6313 6.98279 10.1768
1 22.2236 7.77639 10.9483
1 23.0173 6.98268 10.9483
1 23.0051 7.78578 10.1718
1 22.2172 6.99766 10.1373
1 23.811 7.77639 10.9483
1 24.6047 6.98268 10.9483
1 24.5828 7.77049 10.1767
1 23.8102 6.98855 10.1687
1 25.3984 7.77639 10.9483
1 26.1921 6.98268 10.9483
1 26.1976 7.78223 10.1706
1 25.3864 6.99493 10.1913
1 26.9858 7.77639 10.9483
1 27.7795 6.98268 10.9483
1 27.7773 7.78369 10.1535
1 26.993 6.98438 10.1622
1 28.5732 7.77639 10.9483
1 29.3669 6.98268 10.9483
1 29.302 7.78194 10.1233
1 28.5889 6.97033 10.1412
1 30 6.18898 10.9483
1 0.793701 5.39528 10.9483
1 0.826889 6.20071 10.1256
1 0.0778993 5.3806 10.0967
1 1.5874 6.18898 10.9483
1 2.3811 5.39528 10.9483
1 2.39988 6.19233 10.1653
1 1.59081 5.40186 10.1446
1 3.1748 6.18898 10.9483
1 3.9685 5.39528 10.9483
1 3.99355 6.20479 10.1493
1 3.19014 5.42373 10.1546
1 4.7622 6.18898 10.9483
1 5.5559 5.39528 10.9483
1 5.58362 6.18397 10.165
1 4.77699 5.39332 10.189
1 6.3496 6.18898 10.9483
1 7.1433 5.39528 10.9483
1 7.1296 6.19764 10.16
1 6.33771 5.37205 10.1624
1 7.93701 6.18898 10.9483
1 8.73071 5.39528 10.9483
1 8.73554 6.20673 10.1535
1 7.94191 5.42757 10.1605
1 9.52441 6.18898 10.9483