9376
Atoms. Timestep: 40000
1 15 3.55271e-15 10.973
1 15.7937 29.2063 10.973
1 15.8322 29.9485 10.1188
1 15.0778 29.1579 10.1448
1 16.5874 3.55271e-15 10.973
1 17.3811 29.2063 10.973
1 17.4089 29.9519 10.1173
1 16.6329 29.1759 10.1436
1 18.1748 3.55271e-15 10.973
1 18.9685 29.2063 10.973
1 18.9546 29.9349 10.1271
1 18.187 29.1716 10.1621
1 19.7622 3.55271e-15 10.973
1 20.5559 29.2063 10.973
1 20.5676 29.935 10.1501
1 19.7402 29.1773 10.1697
1 21.3496 3.55271e-15 10.973
1 22.1433 29.2063 10.973
1 22.13 29.9625 10.1491
1 21.3469 29.1797 10.1607
1 22.937 3.55271e-15 10.973
1 23.7307 29.2063 10.973
1 23.7351 29.9459 10.1277
1 22.9261 29.1884 10.1703
1 24.5244 3.55271e-15 10.973
1 25.3181 29.2063 10.973
1 25.3104 29.9263 10.1346
1 24.5204 29.1933 10.1773
1 26.1118 3.55271e-15 10.973
1 26.9055 29.2063 10.973
1 26.9323 29.9457 10.1404
1 26.1118 29.1643 10.1542
1 27.6992 3.55271e-15 10.973
1 28.4929 29.2063 10.973
1 28.5116 29.9512 10.162
1 27.7056 29.18 10.1799
1 29.2866 3.55271e-15 10.973
1 0.08031 29.2063 10.973
1 0.084437 29.9556 10.1338
1 29.2801 29.1821 10.1615
1 0.874011 3.55271e-15 10.973
1 1.66771 29.2063 10.973
1 1.68819 29.9537 10.1427
1 0.886808 29.195 10.1742
1 2.46141 3.55271e-15 10.973
1 3.25511 29.2063 10.973
1 3.23987 29.933 10.1547
1 2.43364 29.1701 10.1783
1 4.04881 3.55271e-15 10.973
1 4.84251 29.2063 10.973
1 4.82564 29.9491 10.1441
1 4.05388 29.1542 10.1836
1 5.63621 3.55271e-15 10.973
1 6.42991 29.2063 10.973
1 6.41152 29.9491 10.1217
1 5.61831 29.1625 10.1865
1 7.22361 3.55271e-15 10.973
1 8.01732 29.2063 10.973
1 8.04813 29.93 10.1454
1 7.24241 29.1811 10.1748
1 8.81102 3.55271e-15 10.973
1 9.60472 29.2063 10.973
1 9.60292 29.9088 10.1256
1 8.81754 29.1587 10.1676
1 10.3984 3.55271e-15 10.973
1 11.1921 29.2063 10.973
1 11.186 29.9205 10.1508
1 10.3906 29.185 10.1958
1 11.9858 3.55271e-15 10.973
1 12.7795 29.2063 10.973
1 12.7673 29.9282 10.1539
1 11.9668 29.1696 10.1809
1 13.5732 3.55271e-15 10.973
1 14.3669 29.2063 10.973
1 14.2969 29.9161 10.1199
1 13.5743 29.1795 10.1564
1 15 28.4126 10.973
1 15.7937 27.6189 10.973
1 15.8377 28.3857 10.1735
1 15.0827 27.6228 10.1488
1 16.5874 28.4126 10.973
1 17.3811 27.6189 10.973
1 17.4275 28.419 10.1604
1 16.6179 27.6121 10.168
1 18.1748 28.4126 10.973
1 18.9685 27.6189 10.973
1 18.9973 28.3941 10.1624
1 18.2048 27.619 10.1829
1 19.7622 28.4126 10.973
1 20.5559 27.6189 10.973
1 20.5632 28.3987 10.1891
1 19.7677 27.5974 10.1999
1 21.3496 28.4126 10.973
1 22.1433 27.6189 10.973
1 22.147 28.4003 10.1653
1 21.366 27.6134 10.1929
1 22.937 28.4126 10.973
1 23.7307 27.6189 10.973
1 23.7089 28.4261 10.1765
1 22.9416 27.6103 10.1779
1 24.5244 28.4126 10.973
1 25.3181 27.6189 10.973
1 25.3201 28.4067 10.1874
1 24.5177 27.6155 10.1752
1 26.1118 28.4126 10.973
1 26.9055 27.6189 10.973
1 26.8851 28.4098 10.1922
1 26.0949 27.611 10.1576
1 27.6992 28.4126 10.973
1 28.4929 27.6189 10.973
1 28.4923 28.3787 10.1754
1 27.6918 27.5964 10.1673
1 29.2866 28.4126 10.973
1 0.08031 27.6189 10.973
1 0.0824833 28.4018 10.1631
1 29.3023 27.6032 10.1904
1 0.874011 28.4126 10.973
1 1.66771 27.6189 10.973
1 1.65073 28.4093 10.1753
1 0.872351 27.6298 10.1749
1 2.46141 28.4126 10.973
1 3.25511 27.6189 10.973
1 3.26374 28.3631 10.1747
1 2.45958 27.6099 10.186
1 4.04881 28.4126 10.973
1 4.84251 27.6189 10.973
1 4.85588 28.3654 10.1943
1 4.04863 27.6025 10.1792
1 5.63621 28.4126 10.973
1 6.42991 27.6189 10.973
1 6.43175 28.3893 10.1772
1 5.63492 27.5915 10.1752
1 7.22361 28.4126 10.973
1 8.01732 27.6189 10.973
1 8.02562 28.3791 10.1858
1 7.21438 27.6151 10.1705
1 8.81102 28.4126 10.973
1 9.60472 27.6189 10.973
1 9.6173 28.3872 10.2226
1 8.8284 27.6171 10.181
1 10.3984 28.4126 10.973
1 11.1921 27.6189 10.973
1 11.1944 28.3716 10.1751
1 10.4005 27.6028 10.156
1 11.9858 28.4126 10.973
1 12.7795 27.6189 10.973
1 12.7727 28.4045 10.171
1 11.9815 27.5919 10.1936
1 13.5732 28.4126 10.973
1 14.3669 27.6189 10.973
1 14.2992 28.3758 10.1501
1 13.5529 27.6106 10.1651
1 15 26.8252 10.973
1 15.7937 26.0315 10.973
1 15.84 26.8495 10.1807
1 15.0588 26.0303 10.1921
1 16.5874 26.8252 10.973
1 17.3811 26.0315 10.973
1 17.4238 26.8111 10.1675
1 16.5806 26.0229 10.1718
1 18.1748 26.8252 10.973
1 18.9685 26.0315 10.973
1 18.9938 26.8047 10.1794
1 18.1735 26.0129 10.1677
1 19.7622 26.8252 10.973
1 20.5559 26.0315 10.973
1 20.5865 26.8155 10.1659
1 19.7947 26.0425 10.1973
1 21.3496 26.8252 10.973
1 22.1433 26.0315 10.973
1 22.1681 26.8032 10.1876
1 21.3637 26.039 10.1678
1 22.937 26.8252 10.973
1 23.7307 26.0315 10.973
1 23.7301 26.8182 10.1848
1 22.9719 26.023 10.1676
1 24.5244 26.8252 10.973
1 25.3181 26.0315 10.973
1 25.3037 26.8146 10.1943
1 24.5288 26.0098 10.1963
1 26.1118 26.8252 10.973
1 26.9055 26.0315 10.973
1 26.8896 26.8209 10.1911
1 26.1104 26.0051 10.1919
1 27.6992 26.8252 10.973
1 28.4929 26.0315 10.973
1 28.4763 26.8309 10.1662
1 27.7147 26.0175 10.1919
1 29.2866 26.8252 10.973
1 0.08031 26.0315 10.973
1 0.0832189 26.8087 10.176
1 29.2881 26.0067 10.2075
1 0.874011 26.8252 10.973
1 1.66771 26.0315 10.973
1 1.656 26.8223 10.1847
1 0.893267 26.025 10.1791
1 2.46141 26.8252 10.973
1 3.25511 26.0315 10.973
1 3.26525 26.8167 10.1711
1 2.45078 26.0512 10.1879
1 4.04881 26.8252 10.973
1 4.84251 26.0315 10.973
1 4.82774 26.8059 10.1764
1 4.0529 26.0021 10.1968
1 5.63621 26.8252 10.973
1 6.42991 26.0315 10.973
1 6.43585 26.8016 10.1782
1 5.64081 26.0137 10.1795
1 7.22361 26.8252 10.973
1 8.01732 26.0315 10.973
1 7.9916 26.8262 10.2021
1 7.24444 26.0334 10.1764
1 8.81102 26.8252 10.973
1 9.60472 26.0315 10.973
1 9.59272 26.801 10.1684
1 8.78527 26.0238 10.1786
1 10.3984 26.8252 10.973
1 11.1921 26.0315 10.973
1 11.1842 26.8315 10.1956
1 10.3828 26.0239 10.1751
1 11.9858 26.8252 10.973
1 12.7795 26.0315 10.973
1 12.7597 26.8126 10.1741
1 11.9864 26.0183 10.1995
1 13.5732 26.8252 10.973
1 14.3669 26.0315 10.973
1 14.3086 26.8115 10.1616
1 13.552 26.043 10.1665
1 15 25.2378 10.973
1 15.7937 24.4441 10.973
1 15.8015 25.2342 10.168
1 15.0828 24.4267 10.1713
1 16.5874 25.2378 10.973
1 17.3811 24.4441 10.973
1 17.376 25.2466 10.1736
1 16.5832 24.4512 10.1458
1 18.1748 25.2378 10.973
1 18.9685 24.4441 10.973
1 18.98 25.2323 10.1674
1 18.1746 24.4368 10.1819
1 19.7622 25.2378 10.973
1 20.5559 24.4441 10.973
1 20.5752 25.2366 10.2074
1 19.7728 24.4503 10.175
1 21.3496 25.2378 10.973
1 22.1433 24.4441 10.973
1 22.1758 25.2304 10.1793
1 21.3584 24.4453 10.1763
1 22.937 25.2378 10.973
1 23.7307 24.4441 10.973
1 23.7318 25.2361 10.1785
1 22.9358 24.432 10.1945
1 24.5244 25.2378 10.973
1 25.3181 24.4441 10.973
1 25.3083 25.2262 10.1795
1 24.5138 24.4452 10.1915
1 26.1118 25.2378 10.973
1 26.9055 24.4441 10.973
1 26.9124 25.2201 10.1833
1 26.1124 24.4338 10.1796
1 27.6992 25.2378 10.973
1 28.4929 24.4441 10.973
1 28.5039 25.2441 10.2001
1 27.714 24.4132 10.169
1 29.2866 25.2378 10.973
1 0.08031 24.4441 10.973
1 0.0867048 25.2386 10.1748
1 29.263 24.437 10.1792
1 0.874011 25.2378 10.973
1 1.66771 24.4441 10.973
1 1.67842 25.227 10.1807
1 0.883927 24.4425 10.1887
1 2.46141 25.2378 10.973
1 3.25511 24.4441 10.973
1 3.24872 25.2245 10.1659
1 2.44849 24.4515 10.1799
1 4.04881 25.2378 10.973
1 4.84251 24.4441 10.973
1 4.83959 25.2176 10.1971
1 4.03737 24.4377 10.1767
1 5.63621 25.2378 10.973
1 6.42991 24.4441 10.973
1 6.43353 25.2261 10.1874
1 5.63084 24.4411 10.1736
1 7.22361 25.2378 10.973
1 8.01732 24.4441 10.973
1 8.00596 25.2419 10.1981
1 7.25003 24.4434 10.1883
1 8.81102 25.2378 10.973
1 9.60472 24.4441 10.973
1 9.59569 25.2161 10.1729
1 8.79832 24.4583 10.1864
1 10.3984 25.2378 10.973
1 11.1921 24.4441 10.973
1 11.2147 25.233 10.1904
1 10.4004 24.4511 10.1986
1 11.9858 25.2378 10.973
1 12.7795 24.4441 10.973
1 12.7403 25.2228 10.2048
1 11.9833 24.4447 10.1912
1 13.5732 25.2378 10.973
1 14.3669 24.4441 10.973
1 14.2907 25.254 10.1441
1 13.5348 24.4428 10.192
1 15 23.6504 10.973
1 15.7937 22.8567 10.973
1 15.8158 23.6474 10.1638
1 15.0747 22.862 10.1302
1 16.5874 23.6504 10.973
1 17.3811 22.8567 10.973
1 17.3558 23.652 10.197
1 16.5915 22.8447 10.182
1 18.1748 23.6504 10.973
1 18.9685 22.8567 10.973
1 18.9795 23.6578 10.1992
1 18.1606 22.8489 10.199
1 19.7622 23.6504 10.973
1 20.5559 22.8567 10.973
1 20.5757 23.6347 10.1966
1 19.7403 22.8389 10.2159
1 21.3496 23.6504 10.973
1 22.1433 22.8567 10.973
1 22.1426 23.6394 10.1888
1 21.3468 22.8539 10.1867
1 22.937 23.6504 10.973
1 23.7307 22.8567 10.973
1 23.7212 23.6448 10.1993
1 22.9209 22.8547 10.1659
1 24.5244 23.6504 10.973
1 25.3181 22.8567 10.973
1 25.3278 23.6515 10.1743
1 24.513 22.8577 10.1817
1 26.1118 23.6504 10.973
1 26.9055 22.8567 10.973
1 26.9286 23.6526 10.1677
1 26.1365 22.8457 10.1622
1 27.6992 23.6504 10.973
1 28.4929 22.8567 10.973
1 28.493 23.6323 10.1557
1 27.7266 22.8477 10.182
1 29.2866 23.6504 10.973
1 0.08031 22.8567 10.973
1 0.0948523 23.6618 10.1784
1 29.2909 22.8402 10.185
1 0.874011 23.6504 10.973
1 1.66771 22.8567 10.973
1 1.67465 23.6641 10.2007
1 0.872342 22.8518 10.1713
1 2.46141 23.6504 10.973
1 3.25511 22.8567 10.973
1 3.24216 23.6397 10.1886
1 2.47993 22.836 10.1698
1 4.04881 23.6504 10.973
1 4.84251 22.8567 10.973
1 4.84528 23.6452 10.1895
1 4.05432 22.8538 10.1729
1 5.63621 23.6504 10.973
1 6.42991 22.8567 10.973
1 6.41954 23.6469 10.1698
1 5.62481 22.8665 10.1717
1 7.22361 23.6504 10.973
1 8.01732 22.8567 10.973
1 7.99618 23.6318 10.1638
1 7.18888 22.8641 10.1423
1 8.81102 23.6504 10.973
1 9.60472 22.8567 10.973
1 9.57191 23.6582 10.2015
1 8.79126 22.8406 10.194
1 10.3984 23.6504 10.973
1 11.1921 22.8567 10.973
1 11.186 23.6576 10.193
1 10.3884 22.8578 10.189
1 11.9858 23.6504 10.973
1 12.7795 22.8567 10.973
1 12.7475 23.6541 10.1791
1 11.9521 22.8521 10.1526
1 13.5732 23.6504 10.973
1 14.3669 22.8567 10.973
1 14.2762 23.6541 10.1267
1 13.5282 22.8382 10.1567
1 15 22.063 10.973
1 15.7937 21.2693 10.973
1 15.8009 22.0318 10.1861
1 15.0474 21.2557 10.1461
1 16.5874 22.063 10.973
1 17.3811 21.2693 10.973
1 17.3875 22.0716 10.2016
1 16.5907 21.2442 10.176
1 18.1748 22.063 10.973
1 18.9685 21.2693 10.973
1 18.9758 22.0612 10.1941
1 18.1425 21.255 10.1777
1 19.7622 22.063 10.973
1 20.5559 21.2693 10.973
1 20.5382 22.0929 10.1945
1 19.7642 21.2775 10.2
1 21.3496 22.063 10.973
1 22.1433 21.2693 10.973
1 22.142 22.0707 10.1738
1 21.3402 21.2548 10.1846
1 22.937 22.063 10.973
1 23.7307 21.2693 10.973
1 23.7432 22.0618 10.1757
1 22.9273 21.2569 10.1482
1 24.5244 22.063 10.973
1 25.3181 21.2693 10.973
1 25.3148 22.0497 10.1589
1 24.5062 21.2837 10.1807
1 26.1118 22.063 10.973
1 26.9055 21.2693 10.973
1 26.9171 22.0513 10.1705
1 26.1212 21.2566 10.1938
1 27.6992 22.063 10.973
1 28.4929 21.2693 10.973
1 28.4961 22.0733 10.1853
1 27.6974 21.253 10.1891
1 29.2866 22.063 10.973
1 0.08031 21.2693 10.973
1 0.0987298 22.0546 10.1667
1 29.2857 21.267 10.1751
1 0.874011 22.063 10.973
1 1.66771 21.2693 10.973
1 1.67807 22.0262 10.1706
1 0.869423 21.2673 10.1612
1 2.46141 22.063 10.973
1 3.25511 21.2693 10.973
1 3.28721 22.0873 10.1881
1 2.49936 21.2653 10.175
1 4.04881 22.063 10.973
1 4.84251 21.2693 10.973
1 4.85323 22.0937 10.1745
1 4.0621 21.2623 10.1912
1 5.63621 22.063 10.973
1 6.42991 21.2693 10.973
1 6.40564 22.0569 10.1741
1 5.62678 21.2876 10.1602
1 7.22361 22.063 10.973
1 8.01732 21.2693 10.973
1 8.00602 22.0706 10.1605
1 7.20687 21.2725 10.163
1 8.81102 22.063 10.973
1 9.60472 21.2693 10.973
1 9.60431 22.0389 10.1959
1 8.7952 21.2736 10.187
1 10.3984 22.063 10.973
1 11.1921 21.2693 10.973
1 11.1823 22.0647 10.1684
1 10.3777 21.268 10.202
1 11.9858 22.063 10.973
1 12.7795 21.2693 10.973
1 12.7511 22.0449 10.1771
1 11.9817 21.2811 10.1703
1 13.5732 22.063 10.973
1 14.3669 21.2693 10.973
1 14.2822 22.0619 10.1453
1 13.52 21.2859 10.1738
1 15 20.4756 10.973
1 15.7937 19.6819 10.973
1 15.7965 20.4672 10.1621
1 15.0626 19.6878 10.1347
1 16.5874 20.4756 10.973
1 17.3811 19.6819 10.973
1 17.3942 20.4807 10.1742
1 16.5951 19.6736 10.1855
1 18.1748 20.4756 10.973
1 18.9685 19.6819 10.973
1 18.9918 20.4673 10.1677
1 18.1884 19.6989 10.1991
1 19.7622 20.4756 10.973
1 20.5559 19.6819 10.973
1 20.5641 20.4498 10.1436
1 19.7669 19.6881 10.1694
1 21.3496 20.4756 10.973
1 22.1433 19.6819 10.973
1 22.1494 20.4518 10.1536
1 21.371 19.674 10.1754
1 22.937 20.4756 10.973
1 23.7307 19.6819 10.973
1 23.7318 20.5059 10.2147
1 22.9682 19.7048 10.1659
1 24.5244 20.4756 10.973
1 25.3181 19.6819 10.973
1 25.3031 20.4894 10.145
1 24.5229 19.6859 10.1939
1 26.1118 20.4756 10.973
1 26.9055 19.6819 10.973
1 26.8904 20.4618 10.1885
1 26.077 19.6746 10.19
1 27.6992 20.4756 10.973
1 28.4929 19.6819 10.973
1 28.4742 20.4739 10.2054
1 27.6629 19.6761 10.193
1 29.2866 20.4756 10.973
1 0.08031 19.6819 10.973
1 0.0656909 20.5016 10.1661
1 29.2748 19.679 10.1786
1 0.874011 20.4756 10.973
1 1.66771 19.6819 10.973
1 1.65238 20.4936 10.1797
1 0.87904 19.6801 10.1584
1 2.46141 20.4756 10.973
1 3.25511 19.6819 10.973
1 3.27901 20.4675 10.1806
1 2.44923 19.6807 10.1959
1 4.04881 20.4756 10.973
1 4.84251 19.6819 10.973
1 4.82282 20.4553 10.1609
1 4.05376 19.6746 10.1814
1 5.63621 20.4756 10.973
1 6.42991 19.6819 10.973
1 6.42789 20.4869 10.1973
1 5.63471 19.6798 10.1313
1 7.22361 20.4756 10.973
1 8.01732 19.6819 10.973
1 7.99691 20.4768 10.1976
1 7.26191 19.6757 10.1688
1 8.81102 20.4756 10.973
1 9.60472 19.6819 10.973
1 9.59227 20.465 10.1831
1 8.81434 19.6809 10.1951
1 10.3984 20.4756 10.973
1 11.1921 19.6819 10.973
1 11.1662 20.4585 10.1832
1 10.3631 19.6821 10.1718
1 11.9858 20.4756 10.973
1 12.7795 19.6819 10.973
1 12.7528 20.4661 10.1663
1 11.9331 19.6815 10.1776
1 13.5732 20.4756 10.973
1 14.3669 19.6819 10.973
1 14.3009 20.4745 10.1556
1 13.5567 19.7011 10.1734
1 15 18.8882 10.973
1 15.7937 18.0945 10.973
1 15.8545 18.9063 10.1934
1 15.0633 18.1241 10.1405
1 16.5874 18.8882 10.973
1 17.3811 18.0945 10.973
1 17.3982 18.8884 10.1739
1 16.6102 18.0995 10.1809
1 18.1748 18.8882 10.973
1 18.9685 18.0945 10.973
1 18.9747 18.8687 10.1427
1 18.2184 18.0928 10.1771
1 19.7622 18.8882 10.973
1 20.5559 18.0945 10.973
1 20.5589 18.89 10.1847
1 19.7775 18.0944 10.1614
1 21.3496 18.8882 10.973
1 22.1433 18.0945 10.973
1 22.1626 18.8926 10.1844
1 21.3646 18.1125 10.1811
1 22.937 18.8882 10.973
1 23.7307 18.0945 10.973
1 23.7352 18.9183 10.1897
1 22.9376 18.1007 10.2078
1 24.5244 18.8882 10.973
1 25.3181 18.0945 10.973
1 25.3243 18.8921 10.1803
1 24.5267 18.1065 10.162
1 26.1118 18.8882 10.973
1 26.9055 18.0945 10.973
1 26.8871 18.8592 10.1981
1 26.1208 18.0811 10.1691
1 27.6992 18.8882 10.973
1 28.4929 18.0945 10.973
1 28.4683 18.8924 10.2002
1 27.6995 18.0757 10.1779
1 29.2866 18.8882 10.973
1 0.08031 18.0945 10.973
1 0.0850556 18.903 10.1861
1 29.3077 18.1193 10.1617
1 0.874011 18.8882 10.973
1 1.66771 18.0945 10.973
1 1.65547 18.8906 10.1593
1 0.889008 18.1033 10.1905
1 2.46141 18.8882 10.973
1 3.25511 18.0945 10.973
1 3.23525 18.8939 10.1985
1 2.47213 18.1065 10.1741
1 4.04881 18.8882 10.973
1 4.84251 18.0945 10.973
1 4.84358 18.9084 10.1838
1 4.02864 18.114 10.1782
1 5.63621 18.8882 10.973
1 6.42991 18.0945 10.973
1 6.45046 18.8868 10.1847
1 5.65852 18.0916 10.1841
1 7.22361 18.8882 10.973
1 8.01732 18.0945 10.973
1 8.02089 18.894 10.1853
1 7.24078 18.0979 10.158
1 8.81102 18.8882 10.973
1 9.60472 18.0945 10.973
1 9.61278 18.9068 10.1659
1 8.82732 18.0851 10.1829
1 10.3984 18.8882 10.973
1 11.1921 18.0945 10.973
1 11.1658 18.8742 10.201
1 10.369 18.1072 10.1946
1 11.9858 18.8882 10.973
1 12.7795 18.0945 10.973
1 12.7586 18.931 10.2115
1 11.9794 18.0968 10.1857
1 13.5732 18.8882 10.973
1 14.3669 18.0945 10.973
1 14.3091 18.8848 10.1496
1 13.5314 18.1044 10.1619
1 15 17.3008 10.973
1 15.7937 16.5071 10.973
1 15.8426 17.3021 10.1469
1 15.0681 16.4978 10.1527
1 16.5874 17.3008 10.973
1 17.3811 16.5071 10.973
1 17.4022 17.3186 10.1645
1 16.6292 16.5018 10.1482
1 18.1748 17.3008 10.973
1 18.9685 16.5071 10.973
1 18.9873 17.3077 10.1801
1 18.1871 16.4816 10.184
1 19.7622 17.3008 10.973
1 20.5559 16.5071 10.973
1 20.564 17.3087 10.2013
1 19.7568 16.5243 10.1701
1 21.3496 17.3008 10.973
1 22.1433 16.5071 10.973
1 22.1269 17.3022 10.1962
1 21.3535 16.5111 10.1815
1 22.937 17.3008 10.973
1 23.7307 16.5071 10.973
1 23.7433 17.3041 10.1845
1 22.9263 16.4848 10.1755
1 24.5244 17.3008 10.973
1 25.3181 16.5071 10.973
1 25.3152 17.3001 10.1891
1 24.5135 16.494 10.1835
1 26.1118 17.3008 10.973
1 26.9055 16.5071 10.973
1 26.9093 17.3055 10.1896
1 26.1235 16.5158 10.2137
1 27.6992 17.3008 10.973
1 28.4929 16.5071 10.973
1 28.5032 17.3049 10.1675
1 27.7047 16.5199 10.1791
1 29.2866 17.3008 10.973
1 0.08031 16.5071 10.973
1 0.0876422 17.3005 10.1956
1 29.2839 16.5238 10.1929
1 0.874011 17.3008 10.973
1 1.66771 16.5071 10.973
1 1.6612 17.3036 10.1804
1 0.878279 16.4845 10.1897
1 2.46141 17.3008 10.973
1 3.25511 16.5071 10.973
1 3.25073 17.2807 10.1707
1 2.45625 16.5175 10.1765
1 4.04881 17.3008 10.973
1 4.84251 16.5071 10.973
1 4.8438 17.2983 10.1809
1 4.04467 16.5009 10.1958
1 5.63621 17.3008 10.973
1 6.42991 16.5071 10.973
1 6.43426 17.3317 10.167
1 5.63052 16.5064 10.1827
1 7.22361 17.3008 10.973
1 8.01732 16.5071 10.973
1 8.01375 17.2903 10.1756
1 7.20605 16.5251 10.1877
1 8.81102 17.3008 10.973
1 9.60472 16.5071 10.973
1 9.61086 17.2983 10.1754
1 8.80987 16.5087 10.1798
1 10.3984 17.3008 10.973
1 11.1921 16.5071 10.973
1 11.195 17.2959 10.174
1 10.408 16.4845 10.1761
1 11.9858 17.3008 10.973
1 12.7795 16.5071 10.973
1 12.7643 17.3017 10.1945
1 11.9776 16.5128 10.1789
1 13.5732 17.3008 10.973
1 14.3669 16.5071 10.973
1 14.3108 17.2982 10.1465
1 13.5437 16.502 10.1725
1 15 15.7134 10.973
1 15.7937 14.9197 10.973
1 15.8083 15.7233 10.1526
1 15.0577 14.9144 10.1378
1 16.5874 15.7134 10.973
1 17.3811 14.9197 10.973
1 17.392 15.7054 10.1688
1 16.5991 14.9312 10.1732
1 18.1748 15.7134 10.973
1 18.9685 14.9197 10.973
1 18.9822 15.7105 10.1836
1 18.1991 14.9199 10.1814
1 19.7622 15.7134 10.973
1 20.5559 14.9197 10.973
1 20.5648 15.7176 10.1948
1 19.7704 14.9277 10.1631
1 21.3496 15.7134 10.973
1 22.1433 14.9197 10.973
1 22.1334 15.6987 10.1798
1 21.3559 14.9202 10.1722
1 22.937 15.7134 10.973
1 23.7307 14.9197 10.973
1 23.7276 15.7095 10.2028
1 22.9282 14.9168 10.2011
1 24.5244 15.7134 10.973
1 25.3181 14.9197 10.973
1 25.3099 15.6956 10.1718
1 24.516 14.9268 10.1833
1 26.1118 15.7134 10.973
1 26.9055 14.9197 10.973
1 26.9181 15.7137 10.1781
1 26.1302 14.9275 10.2142
1 27.6992 15.7134 10.973
1 28.4929 14.9197 10.973
1 28.4908 15.7198 10.1715
1 27.7022 14.9366 10.1809
1 29.2866 15.7134 10.973
1 0.08031 14.9197 10.973
1 0.0803488 15.7105 10.1668
1 29.2672 14.9141 10.1744
1 0.874011 15.7134 10.973
1 1.66771 14.9197 10.973
1 1.65919 15.7016 10.1905
1 0.854965 14.9142 10.1893
1 2.46141 15.7134 10.973
1 3.25511 14.9197 10.973
1 3.24833 15.6957 10.2037
1 2.46892 14.925 10.1741
1 4.04881 15.7134 10.973
1 4.84251 14.9197 10.973
1 4.83794 15.7254 10.1748
1 4.04872 14.9276 10.2067
1 5.63621 15.7134 10.973
1 6.42991 14.9197 10.973
1 6.42658 15.7301 10.175
1 5.62849 14.9547 10.1816
1 7.22361 15.7134 10.973
1 8.01732 14.9197 10.973
1 7.99476 15.7281 10.1702
1 7.2191 14.9014 10.1994
1 8.81102 15.7134 10.973
1 9.60472 14.9197 10.973
1 9.57895 15.6992 10.163
1 8.78568 14.9321 10.1698
1 10.3984 15.7134 10.973
1 11.1921 14.9197 10.973
1 11.1623 15.6876 10.2043
1 10.3833 14.9127 10.1606
1 11.9858 15.7134 10.973
1 12.7795 14.9197 10.973
1 12.7471 15.7144 10.1447
1 11.9964 14.9241 10.1982
1 13.5732 15.7134 10.973
1 14.3669 14.9197 10.973
1 14.3194 15.7143 10.125
1 13.5133 14.8957 10.1534
1 15 14.126 10.973
1 15.7937 13.3323 10.973
1 15.8262 14.1578 10.1487
1 15.0897 13.3397 10.151
1 16.5874 14.126 10.973
1 17.3811 13.3323 10.973
1 17.3942 14.1343 10.1458
1 16.6075 13.3441 10.1792
1 18.1748 14.126 10.973
1 18.9685 13.3323 10.973
1 18.9895 14.135 10.1537
1 18.1945 13.344 10.1866
1 19.7622 14.126 10.973
1 20.5559 13.3323 10.973
1 20.5437 14.1247 10.1929
1 19.7535 13.3575 10.1674
1 21.3496 14.126 10.973
1 22.1433 13.3323 10.973
1 22.122 14.1062 10.186
1 21.3343 13.3206 10.1773
1 22.937 14.126 10.973
1 23.7307 13.3323 10.973
1 23.7346 14.1312 10.1758
1 22.934 13.3163 10.163
1 24.5244 14.126 10.973
1 25.3181 13.3323 10.973
1 25.3131 14.1352 10.1627
1 24.5315 13.3253 10.1505
1 26.1118 14.126 10.973
1 26.9055 13.3323 10.973
1 26.9402 14.1079 10.1954
1 26.1298 13.3337 10.1634
1 27.6992 14.126 10.973
1 28.4929 13.3323 10.973
1 28.4819 14.1384 10.1791
1 27.737 13.3131 10.171
1 29.2866 14.126 10.973
1 0.08031 13.3323 10.973
1 0.0937994 14.1298 10.1741
1 29.2822 13.368 10.1834
1 0.874011 14.126 10.973
1 1.66771 13.3323 10.973
1 1.6542 14.1008 10.1864
1 0.865606 13.3421 10.1942
1 2.46141 14.126 10.973
1 3.25511 13.3323 10.973
1 3.23524 14.138 10.1637
1 2.45945 13.3311 10.184
1 4.04881 14.126 10.973
1 4.84251 13.3323 10.973
1 4.84397 14.0958 10.1658
1 4.05262 13.3342 10.1836
1 5.63621 14.126 10.973
1 6.42991 13.3323 10.973
1 6.41387 14.1299 10.1721
1 5.63821 13.3097 10.1767
1 7.22361 14.126 10.973
1 8.01732 13.3323 10.973
1 7.99787 14.1175 10.1539
1 7.24121 13.3487 10.1842
1 8.81102 14.126 10.973
1 9.60472 13.3323 10.973
1 9.59772 14.1341 10.1702
1 8.80307 13.3309 10.184
1 10.3984 14.126 10.973
1 11.1921 13.3323 10.973
1 11.181 14.1111 10.1503
1 10.4053 13.3293 10.1478
1 11.9858 14.126 10.973
1 12.7795 13.3323 10.973
1 12.7383 14.1025 10.1517
1 11.9835 13.3106 10.1604
1 13.5732 14.126 10.973
1 14.3669 13.3323 10.973
1 14.3089 14.128 10.1403
1 13.5267 13.3112 10.1745
1 15 12.5386 10.973
1 15.7937 11.7449 10.973
1 15.8501 12.5245 10.1727
1 15.0649 11.7359 10.1506
1 16.5874 12.5386 10.973
1 17.3811 11.7449 10.973
1 17.4049 12.5612 10.1871
1 16.6361 11.7297 10.1934
1 18.1748 12.5386 10.973
1 18.9685 11.7449 10.973
1 18.9833 12.5577 10.1512
1 18.1884 11.7606 10.1732
1 19.7622 12.5386 10.973
1 20.5559 11.7449 10.973
1 20.5502 12.539 10.1624
1 19.7583 11.7526 10.1823
1 21.3496 12.5386 10.973
1 22.1433 11.7449 10.973
1 22.1383 12.545 10.1737
1 21.3454 11.7274 10.1696
1 22.937 12.5386 10.973
1 23.7307 11.7449 10.973
1 23.7344 12.5322 10.2103
1 22.9537 11.759 10.1576
1 24.5244 12.5386 10.973
1 25.3181 11.7449 10.973
1 25.3309 12.5418 10.1701
1 24.5359 11.7444 10.1808
1 26.1118 12.5386 10.973
1 26.9055 11.7449 10.973
1 26.9351 12.5643 10.1734
1 26.1254 11.7578 10.1701
1 27.6992 12.5386 10.973
1 28.4929 11.7449 10.973
1 28.5027 12.5221 10.1705
1 27.708 11.7579 10.1833
1 29.2866 12.5386 10.973
1 0.08031 11.7449 10.973
1 0.0585507 12.5539 10.1988
1 29.3077 11.7582 10.1914
1 0.874011 12.5386 10.973
1 1.66771 11.7449 10.973
1 1.65544 12.5421 10.1816
1 0.850756 11.7499 10.193
1 2.46141 12.5386 10.973
1 3.25511 11.7449 10.973
1 3.27364 12.5531 10.1821
1 2.46131 11.7472 10.1898
1 4.04881 12.5386 10.973
1 4.84251 11.7449 10.973
1 4.81889 12.5349 10.1676
1 4.0577 11.7338 10.1787
1 5.63621 12.5386 10.973
1 6.42991 11.7449 10.973
1 6.43374 12.5517 10.1607
1 5.63434 11.7386 10.1845
1 7.22361 12.5386 10.973
1 8.01732 11.7449 10.973
1 7.99428 12.5452 10.1628
1 7.23477 11.7501 10.1812
1 8.81102 12.5386 10.973
1 9.60472 11.7449 10.973
1 9.62736 12.5494 10.1748
1 8.82463 11.7129 10.1558
1 10.3984 12.5386 10.973
1 11.1921 11.7449 10.973
1 11.1787 12.5277 10.187
1 10.3854 11.746 10.1946
1 11.9858 12.5386 10.973
1 12.7795 11.7449 10.973
1 12.7371 12.5242 10.1628
1 11.979 11.7466 10.1851
1 13.5732 12.5386 10.973
1 14.3669 11.7449 10.973
1 14.2844 12.5143 10.1154
1 13.5427 11.7198 10.1891
1 15 10.9512 10.973
1 15.7937 10.1575 10.973
1 15.8327 10.9364 10.1568
1 15.0685 10.1926 10.1482
1 16.5874 10.9512 10.973
1 17.3811 10.1575 10.973
1 17.406 10.9482 10.1765
1 16.5965 10.1522 10.172
1 18.1748 10.9512 10.973
1 18.9685 10.1575 10.973
1 18.988 10.9385 10.1865
1 18.1913 10.133 10.1878
1 19.7622 10.9512 10.973
1 20.5559 10.1575 10.973
1 20.5576 10.9655 10.1811
1 19.7666 10.1666 10.1529
1 21.3496 10.9512 10.973
1 22.1433 10.1575 10.973
1 22.1599 10.9387 10.1711
1 21.3693 10.1483 10.1773
1 22.937 10.9512 10.973
1 23.7307 10.1575 10.973
1 23.7482 10.9343 10.1666
1 22.932 10.1655 10.1958
1 24.5244 10.9512 10.973
1 25.3181 10.1575 10.973
1 25.3176 10.9633 10.1716
1 24.5639 10.1653 10.1792
1 26.1118 10.9512 10.973
1 26.9055 10.1575 10.973
1 26.9066 10.959 10.1542
1 26.1029 10.1876 10.162
1 27.6992 10.9512 10.973
1 28.4929 10.1575 10.973
1 28.4874 10.9697 10.1683
1 27.6945 10.187 10.1737
1 29.2866 10.9512 10.973
1 0.08031 10.1575 10.973
1 0.0878334 10.9205 10.1639
1 29.3002 10.1447 10.1996
1 0.874011 10.9512 10.973
1 1.66771 10.1575 10.973
1 1.66046 10.9421 10.1653
1 0.891779 10.1581 10.1755
1 2.46141 10.9512 10.973
1 3.25511 10.1575 10.973
1 3.27217 10.9354 10.1633
1 2.44131 10.1791 10.1562
1 4.04881 10.9512 10.973
1 4.84251 10.1575 10.973
1 4.8186 10.9281 10.1688
1 4.04461 10.155 10.1705
1 5.63621 10.9512 10.973
1 6.42991 10.1575 10.973
1 6.43786 10.993 10.177
1 5.63511 10.166 10.1434
1 7.22361 10.9512 10.973
1 8.01732 10.1575 10.973
1 8.02043 10.9757 10.1426
1 7.21797 10.1592 10.1592
1 8.81102 10.9512 10.973
1 9.60472 10.1575 10.973
1 9.60517 10.9623 10.1681
1 8.79331 10.1711 10.187
1 10.3984 10.9512 10.973
1 11.1921 10.1575 10.973
1 11.182 10.9499 10.168
1 10.3905 10.1529 10.1549
1 11.9858 10.9512 10.973
1 12.7795 10.1575 10.973
1 12.7543 10.9588 10.1588
1 11.982 10.16 10.1563
1 13.5732 10.9512 10.973
1 14.3669 10.1575 10.973
1 14.2971 10.942 10.1398
1 13.5333 10.158 10.1819
1 15 9.36379 10.973
1 15.7937 8.57009 10.973
1 15.8082 9.35413 10.1864
1 15.0487 8.56585 10.1781
1 16.5874 9.36379 10.973
1 17.3811 8.57009 10.973
1 17.3728 9.3671 10.1747
1 16.6078 8.60163 10.193
1 18.1748 9.36379 10.973
1 18.9685 8.57009 10.973
1 18.9913 9.34897 10.1959
1 18.1647 8.56419 10.1972
1 19.7622 9.36379 10.973
1 20.5559 8.57009 10.973
1 20.5689 9.36734 10.1698
1 19.7671 8.5872 10.1848
1 21.3496 9.36379 10.973
1 22.1433 8.57009 10.973
1 22.1638 9.37228 10.1866
1 21.359 8.56534 10.1837
1 22.937 9.36379 10.973
1 23.7307 8.57009 10.973
1 23.7567 9.36083 10.2033
1 22.942 8.5566 10.2036
1 24.5244 9.36379 10.973
1 25.3181 8.57009 10.973
1 25.3297 9.3525 10.1823
1 24.5134 8.57559 10.1753
1 26.1118 9.36379 10.973
1 26.9055 8.57009 10.973
1 26.9145 9.39287 10.2211
1 26.1119 8.5693 10.1838
1 27.6992 9.36379 10.973
1 28.4929 8.57009 10.973
1 28.4995 9.35478 10.1755
1 27.6902 8.55697 10.1752
1 29.2866 9.36379 10.973
1 0.08031 8.57009 10.973
1 0.0695685 9.36656 10.1998
1 29.2895 8.57311 10.2034
1 0.874011 9.36379 10.973
1 1.66771 8.57009 10.973
1 1.66065 9.38295 10.1717
1 0.89168 8.57456 10.1912
1 2.46141 9.36379 10.973
1 3.25511 8.57009 10.973
1 3.27121 9.37949 10.169
1 2.48212 8.57348 10.178
1 4.04881 9.36379 10.973
1 4.84251 8.57009 10.973
1 4.85952 9.35494 10.1938
1 4.0417 8.56437 10.1613
1 5.63621 9.36379 10.973
1 6.42991 8.57009 10.973
1 6.41182 9.3608 10.1913
1 5.64175 8.56425 10.1484
1 7.22361 9.36379 10.973
1 8.01732 8.57009 10.973
1 7.98966 9.37705 10.1636
1 7.23588 8.58505 10.1739
1 8.81102 9.36379 10.973
1 9.60472 8.57009 10.973
1 9.60419 9.36529 10.1714
1 8.79886 8.56561 10.1822
1 10.3984 9.36379 10.973
1 11.1921 8.57009 10.973
1 11.1743 9.36399 10.1991
1 10.3972 8.57695 10.1806
1 11.9858 9.36379 10.973
1 12.7795 8.57009 10.973
1 12.7578 9.35415 10.1528
1 11.9654 8.56962 10.1794
1 13.5732 9.36379 10.973
1 14.3669 8.57009 10.973
1 14.308 9.36271 10.1499
1 13.5375 8.56144 10.1693
1 15 7.77639 10.973
1 15.7937 6.98268 10.973
1 15.8388 7.78337 10.1826
1 15.0694 7.00704 10.1613
1 16.5874 7.77639 10.973
1 17.3811 6.98268 10.973
1 17.392 7.78898 10.1858
1 16.5989 6.98878 10.1758
1 18.1748 7.77639 10.973
1 18.9685 6.98268 10.973
1 18.9555 7.79399 10.1809
1 18.172 6.99058 10.2014
1 19.7622 7.77639 10.973
1 20.5559 6.98268 10.973
1 20.5484 7.79936 10.1986
1 19.7637 6.9653 10.1768
1 21.3496 7.77639 10.973
1 22.1433 6.98268 10.973
1 22.1399 7.80191 10.182
1 21.3518 6.9995 10.1761
1 22.937 7.77639 10.973
1 23.7307 6.98268 10.973
1 23.7266 7.76549 10.196
1 22.9341 6.97972 10.1722
1 24.5244 7.77639 10.973
1 25.3181 6.98268 10.973
1 25.2852 7.78014 10.1615
1 24.5245 6.99407 10.1836
1 26.1118 7.77639 10.973
1 26.9055 6.98268 10.973
1 26.8807 7.75918 10.1894
1 26.0633 6.98483 10.1806
1 27.6992 7.77639 10.973
1 28.4929 6.98268 10.973
1 28.4972 7.78792 10.1733
1 27.6888 6.98336 10.1952
1 29.2866 7.77639 10.973
1 0.08031 6.98268 10.973
1 0.0937298 7.77253 10.1884
1 29.2629 6.96828 10.195
1 0.874011 7.77639 10.973
1 1.66771 6.98268 10.973
1 1.69144 7.77961 10.1859
1 0.876529 6.99654 10.1999
1 2.46141 7.77639 10.973
1 3.25511 6.98268 10.973
1 3.27051 7.78227 10.1662
1 2.44985 6.98057 10.1934
1 4.04881 7.77639 10.973
1 4.84251 6.98268 10.973
1 4.82884 7.79627 10.154
1 4.06762 6.9978 10.1898
1 5.63621 7.77639 10.973
1 6.42991 6.98268 10.973
1 6.41898 7.76431 10.1642
1 5.63461 7.00573 10.1732
1 7.22361 7.77639 10.973
1 8.01732 6.98268 10.973
1 8.01446 7.7769 10.1899
1 7.22093 6.97907 10.1812
1 8.81102 7.77639 10.973
1 9.60472 6.98268 10.973
1 9.57798 7.80006 10.1824
1 8.79839 6.99804 10.1974
1 10.3984 7.77639 10.973
1 11.1921 6.98268 10.973
1 11.1956 7.76024 10.1886
1 10.3978 6.98721 10.1916
1 11.9858 7.77639 10.973
1 12.7795 6.98268 10.973
1 12.7704 7.77781 10.1736
1 11.9781 6.98145 10.1816
1 13.5732 7.77639 10.973
1 14.3669 6.98268 10.973
1 14.3178 7.8024 10.1516
1 13.5624 7.0193 10.1641
1 15 6.18898 10.973
1 15.7937 5.39528 10.973
1 15.7952 6.20096 10.2058
1 15.0432 5.39191 10.1215
1 16.5874 6.18898 10.973
1 17.3811 5.39528 10.973
1 17.4059 6.20793 10.1687
1 16.6063 5.40357 10.1846
1 18.1748 6.18898 10.973
1 18.9685 5.39528 10.973
1 18.9551 6.19924 10.1827
1 18.1661 5.40944 10.1683
1 19.7622 6.18898 10.973
1 20.5559 5.39528 10.973
1 20.5439 6.21135 10.1899
1 19.7555 5.4132 10.1671
1 21.3496 6.18898 10.973
1 22.1433 5.39528 10.973
1 22.1426 6.20359 10.1875
1 21.3629 5.408 10.1903
1 22.937 6.18898 10.973
1 23.7307 5.39528 10.973
1 23.7325 6.19487 10.1724
1 22.9121 5.38606 10.1647
1 24.5244 6.18898 10.973
1 25.3181 5.39528 10.973
1 25.3022 6.19602 10.1695
1 24.5127 5.39642 10.1934
1 26.1118 6.18898 10.973
1 26.9055 5.39528 10.973
1 26.9019 6.19442 10.188
1 26.1054 5.39054 10.193
1 27.6992 6.18898 10.973
1 28.4929 5.39528 10.973
1 28.5094 6.20668 10.1706
1 27.7018 5.39876 10.1812
1 29.2866 6.18898 10.973
1 0.08031 5.39528 10.973
1 0.0913424 6.1903 10.1916
1 29.2884 5.39033 10.1654
1 0.874011 6.18898 10.973
1 1.66771 5.39528 10.973
1 1.66733 6.19618 10.1981