9376
Atoms. Timestep: 700000
1 0 3.55271e-15 10.6992
1 0.793701 29.2063 10.6992
1 0.832352 29.9401 9.86896
1 0.0606722 29.173 9.88216
1 1.5874 3.55271e-15 10.6992
1 2.3811 29.2063 10.6992
1 2.39501 29.9321 9.87512
1 1.60325 29.166 9.89472
1 3.1748 3.55271e-15 10.6992
1 3.9685 29.2063 10.6992
1 3.96845 29.9145 9.87125
1 3.18751 29.161 9.93068
1 4.7622 3.55271e-15 10.6992
1 5.5559 29.2063 10.6992
1 5.57639 29.9291 9.87893
1 4.76261 29.1526 9.92619
1 6.3496 3.55271e-15 10.6992
1 7.1433 29.2063 10.6992
1 7.13447 29.9401 9.87471
1 6.35405 29.1476 9.91238
1 7.93701 3.55271e-15 10.6992
1 8.73071 29.2063 10.6992
1 8.74617 29.9241 9.85523
1 7.93044 29.1901 9.88923
1 9.52441 3.55271e-15 10.6992
1 10.3181 29.2063 10.6992
1 10.3048 29.923 9.88146
1 9.54132 29.1778 9.90598
1 11.1118 3.55271e-15 10.6992
1 11.9055 29.2063 10.6992
1 11.8989 29.9423 9.88392
1 11.1459 29.2028 9.89709
1 12.6992 3.55271e-15 10.6992
1 13.4929 29.2063 10.6992
1 13.5093 29.9228 9.8732
1 12.7078 29.1925 9.89518
1 14.2866 3.55271e-15 10.6992
1 15.0803 29.2063 10.6992
1 15.0761 29.943 9.86034
1 14.2998 29.1681 9.91474
1 15.874 3.55271e-15 10.6992
1 16.6677 29.2063 10.6992
1 16.6389 29.9291 9.86279
1 15.8848 29.1915 9.89633
1 17.4614 3.55271e-15 10.6992
1 18.2551 29.2063 10.6992
1 18.268 29.9368 9.89517
1 17.4528 29.1852 9.8894
1 19.0488 3.55271e-15 10.6992
1 19.8425 29.2063 10.6992
1 19.8268 29.9418 9.88492
1 19.053 29.1385 9.89777
1 20.6362 3.55271e-15 10.6992
1 21.4299 29.2063 10.6992
1 21.421 29.9412 9.87114
1 20.63 29.1842 9.88091
1 22.2236 3.55271e-15 10.6992
1 23.0173 29.2063 10.6992
1 23.0241 29.9575 9.88391
1 22.2172 29.2132 9.90961
1 23.811 3.55271e-15 10.6992
1 24.6047 29.2063 10.6992
1 24.5906 29.9517 9.8723
1 23.8072 29.1708 9.89654
1 25.3984 3.55271e-15 10.6992
1 26.1921 29.2063 10.6992
1 26.2079 29.9459 9.90508
1 25.3872 29.1578 9.91079
1 26.9858 3.55271e-15 10.6992
1 27.7795 29.2063 10.6992
1 27.7765 29.9212 9.89312
1 26.9756 29.1846 9.90817
1 28.5732 3.55271e-15 10.6992
1 29.3669 29.2063 10.6992
1 29.3226 29.935 9.8297
1 28.5342 29.1649 9.90213
1 0 28.4126 10.6992
1 0.793701 27.6189 10.6992
1 0.82915 28.4125 9.89151
1 0.0610604 27.5848 9.86132
1 1.5874 28.4126 10.6992
1 2.3811 27.6189 10.6992
1 2.3519 28.3858 9.91988
1 1.57875 27.6033 9.90289
1 3.1748 28.4126 10.6992
1 3.9685 27.6189 10.6992
1 3.96418 28.3984 9.89579
1 3.17208 27.6159 9.91113
1 4.7622 28.4126 10.6992
1 5.5559 27.6189 10.6992
1 5.55034 28.3899 9.92121
1 4.76294 27.5908 9.90833
1 6.3496 28.4126 10.6992
1 7.1433 27.6189 10.6992
1 7.19584 28.3805 9.88573
1 6.35559 27.6223 9.92017
1 7.93701 28.4126 10.6992
1 8.73071 27.6189 10.6992
1 8.71891 28.3861 9.90374
1 7.95866 27.6009 9.9122
1 9.52441 28.4126 10.6992
1 10.3181 27.6189 10.6992
1 10.33 28.4024 9.91459
1 9.52936 27.61 9.91673
1 11.1118 28.4126 10.6992
1 11.9055 27.6189 10.6992
1 11.9149 28.4152 9.89739
1 11.1165 27.6293 9.88383
1 12.6992 28.4126 10.6992
1 13.4929 27.6189 10.6992
1 13.4955 28.4063 9.90379
1 12.7111 27.6063 9.89415
1 14.2866 28.4126 10.6992
1 15.0803 27.6189 10.6992
1 15.116 28.397 9.92921
1 14.2993 27.6083 9.88303
1 15.874 28.4126 10.6992
1 16.6677 27.6189 10.6992
1 16.6556 28.3956 9.89124
1 15.8707 27.6049 9.89848
1 17.4614 28.4126 10.6992
1 18.2551 27.6189 10.6992
1 18.238 28.3958 9.9184
1 17.4485 27.5941 9.89043
1 19.0488 28.4126 10.6992
1 19.8425 27.6189 10.6992
1 19.8544 28.3934 9.91701
1 19.0458 27.5994 9.89457
1 20.6362 28.4126 10.6992
1 21.4299 27.6189 10.6992
1 21.4241 28.4295 9.91363
1 20.6379 27.5853 9.90185
1 22.2236 28.4126 10.6992
1 23.0173 27.6189 10.6992
1 23.0172 28.3655 9.89801
1 22.1962 27.6297 9.90581
1 23.811 28.4126 10.6992
1 24.6047 27.6189 10.6992
1 24.5989 28.3495 9.90785
1 23.7951 27.5866 9.91504
1 25.3984 28.4126 10.6992
1 26.1921 27.6189 10.6992
1 26.203 28.4056 9.90282
1 25.4188 27.6128 9.91599
1 26.9858 28.4126 10.6992
1 27.7795 27.6189 10.6992
1 27.7483 28.3922 9.88328
1 26.985 27.6 9.89355
1 28.5732 28.4126 10.6992
1 29.3669 27.6189 10.6992
1 29.289 28.3784 9.89205
1 28.5509 27.5764 9.91819
1 0 26.8252 10.6992
1 0.793701 26.0315 10.6992
1 0.820137 26.8002 9.90215
1 0.0511863 26.0169 9.8617
1 1.5874 26.8252 10.6992
1 2.3811 26.0315 10.6992
1 2.38687 26.8052 9.91226
1 1.58955 26.0224 9.88884
1 3.1748 26.8252 10.6992
1 3.9685 26.0315 10.6992
1 3.96537 26.8186 9.91685
1 3.17632 26.0387 9.88353
1 4.7622 26.8252 10.6992
1 5.5559 26.0315 10.6992
1 5.57703 26.8206 9.89862
1 4.77985 26.0163 9.92695
1 6.3496 26.8252 10.6992
1 7.1433 26.0315 10.6992
1 7.12655 26.8236 9.92448
1 6.33438 26.0214 9.91352
1 7.93701 26.8252 10.6992
1 8.73071 26.0315 10.6992
1 8.73883 26.8111 9.89694
1 7.94612 26.0562 9.90787
1 9.52441 26.8252 10.6992
1 10.3181 26.0315 10.6992
1 10.3348 26.8324 9.8932
1 9.53604 26.019 9.92252
1 11.1118 26.8252 10.6992
1 11.9055 26.0315 10.6992
1 11.9066 26.8194 9.897
1 11.1362 26.0251 9.91132
1 12.6992 26.8252 10.6992
1 13.4929 26.0315 10.6992
1 13.5053 26.8338 9.9217
1 12.7125 26.0165 9.91242
1 14.2866 26.8252 10.6992
1 15.0803 26.0315 10.6992
1 15.1047 26.8247 9.90227
1 14.2839 26.0188 9.91347
1 15.874 26.8252 10.6992
1 16.6677 26.0315 10.6992
1 16.6582 26.8432 9.89229
1 15.8981 26.0172 9.91772
1 17.4614 26.8252 10.6992
1 18.2551 26.0315 10.6992
1 18.2598 26.8269 9.90496
1 17.4571 26.0417 9.88976
1 19.0488 26.8252 10.6992
1 19.8425 26.0315 10.6992
1 19.8415 26.8086 9.88533
1 19.0612 26.032 9.90203
1 20.6362 26.8252 10.6992
1 21.4299 26.0315 10.6992
1 21.4331 26.7836 9.89987
1 20.6279 26.0372 9.9129
1 22.2236 26.8252 10.6992
1 23.0173 26.0315 10.6992
1 23.0013 26.8435 9.90144
1 22.2203 26.0103 9.90274
1 23.811 26.8252 10.6992
1 24.6047 26.0315 10.6992
1 24.6007 26.8121 9.89186
1 23.7809 26.0172 9.88993
1 25.3984 26.8252 10.6992
1 26.1921 26.0315 10.6992
1 26.1733 26.806 9.89815
1 25.3676 26.0373 9.8907
1 26.9858 26.8252 10.6992
1 27.7795 26.0315 10.6992
1 27.759 26.8186 9.89287
1 26.9618 26.0393 9.88759
1 28.5732 26.8252 10.6992
1 29.3669 26.0315 10.6992
1 29.3342 26.7922 9.87071
1 28.5434 26.04 9.9029
1 0 25.2378 10.6992
1 0.793701 24.4441 10.6992
1 0.839072 25.2243 9.89581
1 0.0657648 24.4584 9.87299
1 1.5874 25.2378 10.6992
1 2.3811 24.4441 10.6992
1 2.39256 25.2613 9.90482
1 1.59773 24.4437 9.9134
1 3.1748 25.2378 10.6992
1 3.9685 24.4441 10.6992
1 3.96106 25.2325 9.90772
1 3.15542 24.4419 9.91134
1 4.7622 25.2378 10.6992
1 5.5559 24.4441 10.6992
1 5.59377 25.2269 9.922
1 4.76653 24.4439 9.93327
1 6.3496 25.2378 10.6992
1 7.1433 24.4441 10.6992
1 7.16491 25.2533 9.92037
1 6.35987 24.4496 9.9151
1 7.93701 25.2378 10.6992
1 8.73071 24.4441 10.6992
1 8.73329 25.2245 9.90572
1 7.91679 24.4362 9.92529
1 9.52441 25.2378 10.6992
1 10.3181 24.4441 10.6992
1 10.3378 25.211 9.90492
1 9.53155 24.4438 9.88917
1 11.1118 25.2378 10.6992
1 11.9055 24.4441 10.6992
1 11.926 25.2142 9.92825
1 11.1006 24.4428 9.92434
1 12.6992 25.2378 10.6992
1 13.4929 24.4441 10.6992
1 13.4831 25.2282 9.91531
1 12.7276 24.4438 9.91991
1 14.2866 25.2378 10.6992
1 15.0803 24.4441 10.6992
1 15.0747 25.2243 9.92383
1 14.2824 24.4172 9.92458
1 15.874 25.2378 10.6992
1 16.6677 24.4441 10.6992
1 16.6824 25.2727 9.91177
1 15.8842 24.4557 9.89128
1 17.4614 25.2378 10.6992
1 18.2551 24.4441 10.6992
1 18.2699 25.2224 9.90591
1 17.4655 24.4425 9.92691
1 19.0488 25.2378 10.6992
1 19.8425 24.4441 10.6992
1 19.8458 25.2469 9.89597
1 19.043 24.4505 9.89146
1 20.6362 25.2378 10.6992
1 21.4299 24.4441 10.6992
1 21.44 25.2522 9.91838
1 20.6175 24.4241 9.89353
1 22.2236 25.2378 10.6992
1 23.0173 24.4441 10.6992
1 23.0292 25.2421 9.9126
1 22.213 24.4415 9.91697
1 23.811 25.2378 10.6992
1 24.6047 24.4441 10.6992
1 24.5946 25.2153 9.91418
1 23.8102 24.4375 9.90491
1 25.3984 25.2378 10.6992
1 26.1921 24.4441 10.6992
1 26.1618 25.2485 9.91393
1 25.39 24.4539 9.90533
1 26.9858 25.2378 10.6992
1 27.7795 24.4441 10.6992
1 27.7324 25.2383 9.91636
1 26.9447 24.4612 9.90741
1 28.5732 25.2378 10.6992
1 29.3669 24.4441 10.6992
1 29.285 25.2407 9.90759
1 28.5441 24.4464 9.90502
1 0 23.6504 10.6992
1 0.793701 22.8567 10.6992
1 0.821657 23.6454 9.88866
1 0.0589947 22.8573 9.84124
1 1.5874 23.6504 10.6992
1 2.3811 22.8567 10.6992
1 2.40154 23.6538 9.90972
1 1.60517 22.8654 9.89626
1 3.1748 23.6504 10.6992
1 3.9685 22.8567 10.6992
1 3.97716 23.6552 9.8973
1 3.18791 22.8546 9.88231
1 4.7622 23.6504 10.6992
1 5.5559 22.8567 10.6992
1 5.57835 23.6369 9.91298
1 4.77059 22.8607 9.89354
1 6.3496 23.6504 10.6992
1 7.1433 22.8567 10.6992
1 7.1485 23.6499 9.90348
1 6.35915 22.8317 9.89731
1 7.93701 23.6504 10.6992
1 8.73071 22.8567 10.6992
1 8.71751 23.6566 9.90854
1 7.97058 22.8448 9.90699
1 9.52441 23.6504 10.6992
1 10.3181 22.8567 10.6992
1 10.3454 23.6441 9.92026
1 9.53655 22.8674 9.91381
1 11.1118 23.6504 10.6992
1 11.9055 22.8567 10.6992
1 11.9082 23.6523 9.89159
1 11.1263 22.8571 9.89365
1 12.6992 23.6504 10.6992
1 13.4929 22.8567 10.6992
1 13.4785 23.6494 9.92214
1 12.7211 22.8541 9.89965
1 14.2866 23.6504 10.6992
1 15.0803 22.8567 10.6992
1 15.0996 23.6695 9.91786
1 14.2817 22.8677 9.9149
1 15.874 23.6504 10.6992
1 16.6677 22.8567 10.6992
1 16.6767 23.6398 9.91278
1 15.8743 22.872 9.93446
1 17.4614 23.6504 10.6992
1 18.2551 22.8567 10.6992
1 18.2511 23.6469 9.90269
1 17.4695 22.8399 9.91676
1 19.0488 23.6504 10.6992
1 19.8425 22.8567 10.6992
1 19.8266 23.6523 9.91909
1 19.0606 22.8777 9.91869
1 20.6362 23.6504 10.6992
1 21.4299 22.8567 10.6992
1 21.4045 23.64 9.90632
1 20.6151 22.8587 9.90829
1 22.2236 23.6504 10.6992
1 23.0173 22.8567 10.6992
1 22.9924 23.6496 9.88099
1 22.2275 22.8671 9.93463
1 23.811 23.6504 10.6992
1 24.6047 22.8567 10.6992
1 24.6058 23.6519 9.92682
1 23.8101 22.8512 9.9263
1 25.3984 23.6504 10.6992
1 26.1921 22.8567 10.6992
1 26.188 23.6611 9.88487
1 25.3887 22.8449 9.92543
1 26.9858 23.6504 10.6992
1 27.7795 22.8567 10.6992
1 27.7697 23.6554 9.89486
1 26.9569 22.8543 9.89839
1 28.5732 23.6504 10.6992
1 29.3669 22.8567 10.6992
1 29.2858 23.6564 9.85655
1 28.5589 22.8674 9.8792
1 0 22.063 10.6992
1 0.793701 21.2693 10.6992
1 0.815156 22.072 9.89997
1 0.0617709 21.2404 9.86086
1 1.5874 22.063 10.6992
1 2.3811 21.2693 10.6992
1 2.37453 22.0727 9.91041
1 1.60337 21.2658 9.9035
1 3.1748 22.063 10.6992
1 3.9685 21.2693 10.6992
1 3.96433 22.046 9.898
1 3.16816 21.2729 9.90608
1 4.7622 22.063 10.6992
1 5.5559 21.2693 10.6992
1 5.5703 22.0786 9.88724
1 4.78586 21.2708 9.91176
1 6.3496 22.063 10.6992
1 7.1433 21.2693 10.6992
1 7.15703 22.0714 9.91684
1 6.33599 21.2781 9.90401
1 7.93701 22.063 10.6992
1 8.73071 21.2693 10.6992
1 8.74266 22.0765 9.91825
1 7.95146 21.2595 9.89966
1 9.52441 22.063 10.6992
1 10.3181 21.2693 10.6992
1 10.3288 22.0691 9.91361
1 9.51597 21.269 9.88118
1 11.1118 22.063 10.6992
1 11.9055 21.2693 10.6992
1 11.8752 22.0405 9.91352
1 11.1065 21.2669 9.87927
1 12.6992 22.063 10.6992
1 13.4929 21.2693 10.6992
1 13.5024 22.0553 9.89959
1 12.6992 21.2813 9.89901
1 14.2866 22.063 10.6992
1 15.0803 21.2693 10.6992
1 15.0933 22.059 9.92785
1 14.2883 21.2641 9.90595
1 15.874 22.063 10.6992
1 16.6677 21.2693 10.6992
1 16.6603 22.0452 9.90814
1 15.8698 21.247 9.89345
1 17.4614 22.063 10.6992
1 18.2551 21.2693 10.6992
1 18.2739 22.0475 9.89016
1 17.4337 21.2754 9.90769
1 19.0488 22.063 10.6992
1 19.8425 21.2693 10.6992
1 19.8431 22.0815 9.93434
1 19.032 21.2717 9.90449
1 20.6362 22.063 10.6992
1 21.4299 21.2693 10.6992
1 21.4298 22.0603 9.89321
1 20.6362 21.2802 9.90784
1 22.2236 22.063 10.6992
1 23.0173 21.2693 10.6992
1 23.0079 22.083 9.91583
1 22.2286 21.2609 9.90177
1 23.811 22.063 10.6992
1 24.6047 21.2693 10.6992
1 24.6049 22.0644 9.90787
1 23.8056 21.2688 9.90889
1 25.3984 22.063 10.6992
1 26.1921 21.2693 10.6992
1 26.1742 22.0648 9.92439
1 25.3991 21.2931 9.89676
1 26.9858 22.063 10.6992
1 27.7795 21.2693 10.6992
1 27.7882 22.0616 9.90289
1 26.9725 21.2714 9.90873
1 28.5732 22.063 10.6992
1 29.3669 21.2693 10.6992
1 29.3039 22.0649 9.87638
1 28.5421 21.2976 9.90724
1 0 20.4756 10.6992
1 0.793701 19.6819 10.6992
1 0.829607 20.4637 9.8809
1 0.0544855 19.681 9.8879
1 1.5874 20.4756 10.6992
1 2.3811 19.6819 10.6992
1 2.38376 20.4716 9.92125
1 1.61065 19.6969 9.8961
1 3.1748 20.4756 10.6992
1 3.9685 19.6819 10.6992
1 3.98419 20.4751 9.90193
1 3.18332 19.6572 9.90088
1 4.7622 20.4756 10.6992
1 5.5559 19.6819 10.6992
1 5.56203 20.4589 9.90228
1 4.7536 19.6829 9.9185
1 6.3496 20.4756 10.6992
1 7.1433 19.6819 10.6992
1 7.1349 20.4783 9.90502
1 6.35048 19.668 9.89809
1 7.93701 20.4756 10.6992
1 8.73071 19.6819 10.6992
1 8.74442 20.4613 9.90208
1 7.95255 19.6826 9.91406
1 9.52441 20.4756 10.6992
1 10.3181 19.6819 10.6992
1 10.3303 20.4758 9.90458
1 9.53831 19.6965 9.91431
1 11.1118 20.4756 10.6992
1 11.9055 19.6819 10.6992
1 11.8932 20.4886 9.93258
1 11.1136 19.6862 9.89569
1 12.6992 20.4756 10.6992
1 13.4929 19.6819 10.6992
1 13.4958 20.473 9.89117
1 12.6876 19.6784 9.88707
1 14.2866 20.4756 10.6992
1 15.0803 19.6819 10.6992
1 15.0752 20.4784 9.89894
1 14.2778 19.6916 9.91575
1 15.874 20.4756 10.6992
1 16.6677 19.6819 10.6992
1 16.6678 20.4624 9.91755
1 15.8688 19.6805 9.91071
1 17.4614 20.4756 10.6992
1 18.2551 19.6819 10.6992
1 18.2222 20.4727 9.9045
1 17.4622 19.664 9.90698
1 19.0488 20.4756 10.6992
1 19.8425 19.6819 10.6992
1 19.8382 20.4642 9.91869
1 19.0467 19.6819 9.9109
1 20.6362 20.4756 10.6992
1 21.4299 19.6819 10.6992
1 21.4268 20.4882 9.88862
1 20.6397 19.6714 9.88917
1 22.2236 20.4756 10.6992
1 23.0173 19.6819 10.6992
1 23.0002 20.4459 9.90129
1 22.2042 19.6497 9.91475
1 23.811 20.4756 10.6992
1 24.6047 19.6819 10.6992
1 24.6221 20.4678 9.88643
1 23.8014 19.6813 9.88561
1 25.3984 20.4756 10.6992
1 26.1921 19.6819 10.6992
1 26.1911 20.497 9.87199
1 25.3901 19.7071 9.90347
1 26.9858 20.4756 10.6992
1 27.7795 19.6819 10.6992
1 27.7635 20.4936 9.91386
1 26.9877 19.6725 9.92652
1 28.5732 20.4756 10.6992
1 29.3669 19.6819 10.6992
1 29.3179 20.4724 9.88723
1 28.5324 19.6985 9.88891
1 0 18.8882 10.6992
1 0.793701 18.0945 10.6992
1 0.828269 18.8819 9.89196
1 0.0423789 18.0757 9.88845
1 1.5874 18.8882 10.6992
1 2.3811 18.0945 10.6992
1 2.4221 18.8989 9.92102
1 1.62596 18.1075 9.89718
1 3.1748 18.8882 10.6992
1 3.9685 18.0945 10.6992
1 3.96513 18.8845 9.90242
1 3.20158 18.0935 9.90663
1 4.7622 18.8882 10.6992
1 5.5559 18.0945 10.6992
1 5.56319 18.8918 9.91071
1 4.76079 18.0965 9.90473
1 6.3496 18.8882 10.6992
1 7.1433 18.0945 10.6992
1 7.1574 18.8962 9.90794
1 6.34919 18.0761 9.90797
1 7.93701 18.8882 10.6992
1 8.73071 18.0945 10.6992
1 8.73991 18.8805 9.95755
1 7.93706 18.0924 9.88275
1 9.52441 18.8882 10.6992
1 10.3181 18.0945 10.6992
1 10.3004 18.9003 9.89405
1 9.50676 18.0973 9.90686
1 11.1118 18.8882 10.6992
1 11.9055 18.0945 10.6992
1 11.9088 18.8812 9.89128
1 11.1059 18.0999 9.89277
1 12.6992 18.8882 10.6992
1 13.4929 18.0945 10.6992
1 13.4978 18.889 9.89461
1 12.6835 18.088 9.90164
1 14.2866 18.8882 10.6992
1 15.0803 18.0945 10.6992
1 15.0722 18.8918 9.90934
1 14.2852 18.1027 9.9091
1 15.874 18.8882 10.6992
1 16.6677 18.0945 10.6992
1 16.6383 18.8827 9.90886
1 15.8649 18.0758 9.89338
1 17.4614 18.8882 10.6992
1 18.2551 18.0945 10.6992
1 18.2516 18.8985 9.87721
1 17.4561 18.0991 9.92044
1 19.0488 18.8882 10.6992
1 19.8425 18.0945 10.6992
1 19.858 18.915 9.91061
1 19.0542 18.1041 9.91187
1 20.6362 18.8882 10.6992
1 21.4299 18.0945 10.6992
1 21.3833 18.8861 9.90267
1 20.6296 18.1062 9.91116
1 22.2236 18.8882 10.6992
1 23.0173 18.0945 10.6992
1 23.0249 18.8684 9.92161
1 22.2201 18.0979 9.88884
1 23.811 18.8882 10.6992
1 24.6047 18.0945 10.6992
1 24.625 18.8779 9.91126
1 23.7868 18.0839 9.8998
1 25.3984 18.8882 10.6992
1 26.1921 18.0945 10.6992
1 26.1832 18.8683 9.91107
1 25.3829 18.1203 9.89103
1 26.9858 18.8882 10.6992
1 27.7795 18.0945 10.6992
1 27.7676 18.8857 9.91126
1 26.9951 18.0846 9.89742
1 28.5732 18.8882 10.6992
1 29.3669 18.0945 10.6992
1 29.2941 18.8968 9.85957
1 28.5535 18.0936 9.88188
1 0 17.3008 10.6992
1 0.793701 16.5071 10.6992
1 0.823917 17.3253 9.90003
1 0.0977622 16.5107 9.86177
1 1.5874 17.3008 10.6992
1 2.3811 16.5071 10.6992
1 2.39997 17.3059 9.89625
1 1.58465 16.5169 9.89639
1 3.1748 17.3008 10.6992
1 3.9685 16.5071 10.6992
1 4.00153 17.3045 9.8896
1 3.20153 16.5167 9.90233
1 4.7622 17.3008 10.6992
1 5.5559 16.5071 10.6992
1 5.53163 17.3068 9.90737
1 4.77327 16.5176 9.92311
1 6.3496 17.3008 10.6992
1 7.1433 16.5071 10.6992
1 7.13965 17.2922 9.90008
1 6.34896 16.5142 9.91105
1 7.93701 17.3008 10.6992
1 8.73071 16.5071 10.6992
1 8.71917 17.2894 9.88857
1 7.95361 16.487 9.9143
1 9.52441 17.3008 10.6992
1 10.3181 16.5071 10.6992
1 10.2934 17.3077 9.90183
1 9.51318 16.4957 9.89113
1 11.1118 17.3008 10.6992
1 11.9055 16.5071 10.6992
1 11.9097 17.329 9.90556
1 11.1216 16.5184 9.9121
1 12.6992 17.3008 10.6992
1 13.4929 16.5071 10.6992
1 13.4969 17.3115 9.90913
1 12.7044 16.5221 9.90152
1 14.2866 17.3008 10.6992
1 15.0803 16.5071 10.6992
1 15.0608 17.3054 9.90796
1 14.3096 16.4854 9.91296
1 15.874 17.3008 10.6992
1 16.6677 16.5071 10.6992
1 16.6826 17.3021 9.91027
1 15.8891 16.5285 9.91062
1 17.4614 17.3008 10.6992
1 18.2551 16.5071 10.6992
1 18.2421 17.3227 9.88652
1 17.4623 16.5363 9.88782
1 19.0488 17.3008 10.6992
1 19.8425 16.5071 10.6992
1 19.8401 17.3242 9.90538
1 19.0536 16.5002 9.93201
1 20.6362 17.3008 10.6992
1 21.4299 16.5071 10.6992
1 21.4383 17.2967 9.89406
1 20.6335 16.5175 9.89308
1 22.2236 17.3008 10.6992
1 23.0173 16.5071 10.6992
1 23.0023 17.3032 9.92507
1 22.2391 16.5085 9.90206
1 23.811 17.3008 10.6992
1 24.6047 16.5071 10.6992
1 24.6059 17.3012 9.90389
1 23.7948 16.5169 9.90766
1 25.3984 17.3008 10.6992
1 26.1921 16.5071 10.6992
1 26.1842 17.3037 9.92031
1 25.3763 16.5221 9.90149
1 26.9858 17.3008 10.6992
1 27.7795 16.5071 10.6992
1 27.7631 17.3026 9.91947
1 26.9647 16.527 9.9136
1 28.5732 17.3008 10.6992
1 29.3669 16.5071 10.6992
1 29.3067 17.2669 9.88416
1 28.5449 16.4971 9.88785
1 0 15.7134 10.6992
1 0.793701 14.9197 10.6992
1 0.803583 15.6896 9.89146
1 0.0644257 14.9402 9.88777
1 1.5874 15.7134 10.6992
1 2.3811 14.9197 10.6992
1 2.37324 15.7128 9.91943
1 1.58796 14.9189 9.90115
1 3.1748 15.7134 10.6992
1 3.9685 14.9197 10.6992
1 3.97884 15.7327 9.90981
1 3.16119 14.9271 9.93598
1 4.7622 15.7134 10.6992
1 5.5559 14.9197 10.6992
1 5.57126 15.708 9.91893
1 4.78404 14.9411 9.88562
1 6.3496 15.7134 10.6992
1 7.1433 14.9197 10.6992
1 7.16084 15.7184 9.92981
1 6.35635 14.929 9.92576
1 7.93701 15.7134 10.6992
1 8.73071 14.9197 10.6992
1 8.73534 15.7164 9.90801
1 7.90835 14.927 9.89403
1 9.52441 15.7134 10.6992
1 10.3181 14.9197 10.6992
1 10.3309 15.7376 9.88715
1 9.54105 14.9423 9.90373
1 11.1118 15.7134 10.6992
1 11.9055 14.9197 10.6992
1 11.9059 15.7314 9.89154
1 11.1125 14.9214 9.88115
1 12.6992 15.7134 10.6992
1 13.4929 14.9197 10.6992
1 13.4891 15.7096 9.89282
1 12.7119 14.9073 9.89534
1 14.2866 15.7134 10.6992
1 15.0803 14.9197 10.6992
1 15.0904 15.7057 9.91054
1 14.2953 14.9146 9.90862
1 15.874 15.7134 10.6992
1 16.6677 14.9197 10.6992
1 16.67 15.7181 9.93335
1 15.871 14.9279 9.91556
1 17.4614 15.7134 10.6992
1 18.2551 14.9197 10.6992
1 18.2639 15.7211 9.90368
1 17.4757 14.9252 9.93171
1 19.0488 15.7134 10.6992
1 19.8425 14.9197 10.6992
1 19.8355 15.7123 9.89849
1 19.0486 14.8994 9.90675
1 20.6362 15.7134 10.6992
1 21.4299 14.9197 10.6992
1 21.4376 15.7063 9.87907
1 20.628 14.9566 9.88352
1 22.2236 15.7134 10.6992
1 23.0173 14.9197 10.6992
1 23.0039 15.6956 9.90076
1 22.1989 14.9196 9.9179
1 23.811 15.7134 10.6992
1 24.6047 14.9197 10.6992
1 24.5809 15.7328 9.89956
1 23.8091 14.9184 9.91781
1 25.3984 15.7134 10.6992
1 26.1921 14.9197 10.6992
1 26.1823 15.7224 9.9032
1 25.3995 14.9498 9.90271
1 26.9858 15.7134 10.6992
1 27.7795 14.9197 10.6992
1 27.7541 15.7387 9.89504
1 26.9725 14.9148 9.88327
1 28.5732 15.7134 10.6992
1 29.3669 14.9197 10.6992
1 29.3405 15.688 9.85483
1 28.5391 14.9405 9.90725
1 0 14.126 10.6992
1 0.793701 13.3323 10.6992
1 0.828247 14.1219 9.88766
1 0.0421852 13.3334 9.87191
1 1.5874 14.126 10.6992
1 2.3811 13.3323 10.6992
1 2.36989 14.131 9.91418
1 1.58481 13.3267 9.88954
1 3.1748 14.126 10.6992
1 3.9685 13.3323 10.6992
1 3.9854 14.1206 9.88704
1 3.19528 13.3131 9.89007
1 4.7622 14.126 10.6992
1 5.5559 13.3323 10.6992
1 5.55247 14.1111 9.8972
1 4.76911 13.312 9.89146
1 6.3496 14.126 10.6992
1 7.1433 13.3323 10.6992
1 7.16964 14.1088 9.91193
1 6.34597 13.3463 9.89793
1 7.93701 14.126 10.6992
1 8.73071 13.3323 10.6992
1 8.73577 14.136 9.89262
1 7.94822 13.358 9.89715
1 9.52441 14.126 10.6992
1 10.3181 13.3323 10.6992
1 10.3139 14.1342 9.89748
1 9.51194 13.3394 9.89774
1 11.1118 14.126 10.6992
1 11.9055 13.3323 10.6992
1 11.9145 14.1527 9.90198
1 11.126 13.3356 9.93385
1 12.6992 14.126 10.6992
1 13.4929 13.3323 10.6992
1 13.4908 14.1365 9.89389
1 12.6744 13.3335 9.91787
1 14.2866 14.126 10.6992
1 15.0803 13.3323 10.6992
1 15.0688 14.1464 9.90949
1 14.2861 13.3341 9.89599
1 15.874 14.126 10.6992
1 16.6677 13.3323 10.6992
1 16.6427 14.1268 9.9126
1 15.8616 13.3457 9.88261
1 17.4614 14.126 10.6992
1 18.2551 13.3323 10.6992
1 18.2576 14.1282 9.94518
1 17.4738 13.3207 9.92159
1 19.0488 14.126 10.6992
1 19.8425 13.3323 10.6992
1 19.8516 14.1424 9.93358
1 19.0459 13.3337 9.90284
1 20.6362 14.126 10.6992
1 21.4299 13.3323 10.6992
1 21.4052 14.1141 9.90612
1 20.6192 13.3149 9.92665
1 22.2236 14.126 10.6992
1 23.0173 13.3323 10.6992
1 23.0007 14.1266 9.93127
1 22.2327 13.2933 9.9028
1 23.811 14.126 10.6992
1 24.6047 13.3323 10.6992
1 24.5812 14.1262 9.90325
1 23.8091 13.3475 9.88063
1 25.3984 14.126 10.6992
1 26.1921 13.3323 10.6992
1 26.1803 14.12 9.91027
1 25.3818 13.3481 9.89047
1 26.9858 14.126 10.6992
1 27.7795 13.3323 10.6992
1 27.7559 14.145 9.90021
1 26.9604 13.3274 9.89466
1 28.5732 14.126 10.6992
1 29.3669 13.3323 10.6992
1 29.2995 14.1331 9.86666
1 28.5374 13.3554 9.89493
1 0 12.5386 10.6992
1 0.793701 11.7449 10.6992
1 0.80925 12.5402 9.87512
1 0.0395227 11.7689 9.8928
1 1.5874 12.5386 10.6992
1 2.3811 11.7449 10.6992
1 2.40036 12.5303 9.91184
1 1.5831 11.7621 9.9158
1 3.1748 12.5386 10.6992
1 3.9685 11.7449 10.6992
1 3.97738 12.5265 9.89203
1 3.18528 11.7445 9.89419
1 4.7622 12.5386 10.6992
1 5.5559 11.7449 10.6992
1 5.59229 12.5414 9.89213
1 4.7657 11.7224 9.91938
1 6.3496 12.5386 10.6992
1 7.1433 11.7449 10.6992
1 7.15759 12.566 9.89915
1 6.36121 11.7581 9.88756
1 7.93701 12.5386 10.6992
1 8.73071 11.7449 10.6992
1 8.74877 12.5298 9.90894
1 7.92706 11.7416 9.92679
1 9.52441 12.5386 10.6992
1 10.3181 11.7449 10.6992
1 10.3075 12.545 9.92286
1 9.48522 11.7314 9.90081
1 11.1118 12.5386 10.6992
1 11.9055 11.7449 10.6992
1 11.9005 12.5469 9.91264
1 11.1078 11.7398 9.90827
1 12.6992 12.5386 10.6992
1 13.4929 11.7449 10.6992
1 13.4748 12.5148 9.9254
1 12.6978 11.736 9.89598
1 14.2866 12.5386 10.6992
1 15.0803 11.7449 10.6992
1 15.0499 12.5278 9.89559
1 14.2754 11.7501 9.92027
1 15.874 12.5386 10.6992
1 16.6677 11.7449 10.6992
1 16.6657 12.5625 9.90272
1 15.8876 11.7469 9.89927
1 17.4614 12.5386 10.6992
1 18.2551 11.7449 10.6992
1 18.2525 12.537 9.89166
1 17.4644 11.7469 9.90599
1 19.0488 12.5386 10.6992
1 19.8425 11.7449 10.6992
1 19.8277 12.5488 9.91971
1 19.0163 11.7248 9.91501
1 20.6362 12.5386 10.6992
1 21.4299 11.7449 10.6992
1 21.43 12.5332 9.90435
1 20.6137 11.7134 9.89143
1 22.2236 12.5386 10.6992
1 23.0173 11.7449 10.6992
1 23.0071 12.5367 9.8984
1 22.2258 11.7398 9.90469
1 23.811 12.5386 10.6992
1 24.6047 11.7449 10.6992
1 24.584 12.532 9.90595
1 23.7981 11.7317 9.92211
1 25.3984 12.5386 10.6992
1 26.1921 11.7449 10.6992
1 26.1649 12.5325 9.89874
1 25.3776 11.7258 9.91727
1 26.9858 12.5386 10.6992
1 27.7795 11.7449 10.6992
1 27.753 12.5229 9.89477
1 26.9773 11.7528 9.90572
1 28.5732 12.5386 10.6992
1 29.3669 11.7449 10.6992
1 29.2604 12.5516 9.85513
1 28.5498 11.7211 9.89117
1 0 10.9512 10.6992
1 0.793701 10.1575 10.6992
1 0.8149 10.9666 9.90678
1 0.0890968 10.152 9.89246
1 1.5874 10.9512 10.6992
1 2.3811 10.1575 10.6992
1 2.3906 10.9796 9.88906
1 1.59848 10.1681 9.91104
1 3.1748 10.9512 10.6992
1 3.9685 10.1575 10.6992
1 3.97232 10.9471 9.89221
1 3.17044 10.1568 9.91649
1 4.7622 10.9512 10.6992
1 5.5559 10.1575 10.6992
1 5.60577 10.973 9.90433
1 4.77554 10.1812 9.90634
1 6.3496 10.9512 10.6992
1 7.1433 10.1575 10.6992
1 7.16004 10.9411 9.87294
1 6.35898 10.1423 9.9182
1 7.93701 10.9512 10.6992
1 8.73071 10.1575 10.6992
1 8.72919 10.9503 9.89064
1 7.93816 10.1706 9.90297
1 9.52441 10.9512 10.6992
1 10.3181 10.1575 10.6992
1 10.3147 10.9472 9.91705
1 9.53314 10.138 9.89654
1 11.1118 10.9512 10.6992
1 11.9055 10.1575 10.6992
1 11.8918 10.9506 9.88533
1 11.1239 10.1566 9.91121
1 12.6992 10.9512 10.6992
1 13.4929 10.1575 10.6992
1 13.4963 10.9551 9.90175
1 12.7138 10.1483 9.89099
1 14.2866 10.9512 10.6992
1 15.0803 10.1575 10.6992
1 15.098 10.9632 9.9207
1 14.2539 10.1159 9.93666
1 15.874 10.9512 10.6992
1 16.6677 10.1575 10.6992
1 16.6749 10.9496 9.87512
1 15.8756 10.1426 9.90348
1 17.4614 10.9512 10.6992
1 18.2551 10.1575 10.6992
1 18.2214 10.9739 9.89707
1 17.4795 10.1432 9.90667
1 19.0488 10.9512 10.6992
1 19.8425 10.1575 10.6992
1 19.8513 10.9428 9.93721
1 19.0448 10.1928 9.87874
1 20.6362 10.9512 10.6992
1 21.4299 10.1575 10.6992
1 21.417 10.9663 9.93063
1 20.6372 10.1442 9.8884
1 22.2236 10.9512 10.6992
1 23.0173 10.1575 10.6992
1 23.0181 10.9734 9.91604
1 22.2385 10.182 9.91884
1 23.811 10.9512 10.6992
1 24.6047 10.1575 10.6992
1 24.5791 10.9604 9.91975
1 23.8082 10.1694 9.91657
1 25.3984 10.9512 10.6992
1 26.1921 10.1575 10.6992
1 26.1869 10.9608 9.92041
1 25.3951 10.1896 9.91609
1 26.9858 10.9512 10.6992
1 27.7795 10.1575 10.6992
1 27.7601 10.9421 9.88997
1 26.9587 10.1691 9.92218
1 28.5732 10.9512 10.6992
1 29.3669 10.1575 10.6992
1 29.2976 10.9364 9.86243
1 28.5448 10.1516 9.88923
1 0 9.36379 10.6992
1 0.793701 8.57009 10.6992
1 0.835751 9.37844 9.88746
1 0.0745545 8.57262 9.88031
1 1.5874 9.36379 10.6992
1 2.3811 8.57009 10.6992
1 2.3964 9.38633 9.92206
1 1.60489 8.57822 9.91053
1 3.1748 9.36379 10.6992
1 3.9685 8.57009 10.6992
1 3.98827 9.37072 9.89914
1 3.2007 8.56686 9.92592
1 4.7622 9.36379 10.6992
1 5.5559 8.57009 10.6992
1 5.52626 9.33599 9.90806
1 4.76985 8.52756 9.90085
1 6.3496 9.36379 10.6992
1 7.1433 8.57009 10.6992
1 7.18034 9.35084 9.91548
1 6.35606 8.56419 9.90696
1 7.93701 9.36379 10.6992
1 8.73071 8.57009 10.6992
1 8.73032 9.34271 9.91933
1 7.95835 8.55542 9.89893
1 9.52441 9.36379 10.6992
1 10.3181 8.57009 10.6992
1 10.3388 9.36294 9.92806
1 9.53975 8.58067 9.92229
1 11.1118 9.36379 10.6992
1 11.9055 8.57009 10.6992
1 11.8982 9.37123 9.89911
1 11.1076 8.59419 9.9065
1 12.6992 9.36379 10.6992
1 13.4929 8.57009 10.6992
1 13.4933 9.35131 9.8892
1 12.7261 8.54399 9.90677
1 14.2866 9.36379 10.6992
1 15.0803 8.57009 10.6992
1 15.0952 9.38848 9.9157
1 14.262 8.55535 9.90345
1 15.874 9.36379 10.6992
1 16.6677 8.57009 10.6992
1 16.6523 9.39785 9.91055
1 15.8785 8.5784 9.92009
1 17.4614 9.36379 10.6992
1 18.2551 8.57009 10.6992
1 18.2667 9.373 9.91143
1 17.468 8.58618 9.89678
1 19.0488 9.36379 10.6992
1 19.8425 8.57009 10.6992
1 19.8172 9.37484 9.89283
1 19.0475 8.58476 9.91017
1 20.6362 9.36379 10.6992
1 21.4299 8.57009 10.6992
1 21.4398 9.36341 9.87906
1 20.633 8.56796 9.90591
1 22.2236 9.36379 10.6992
1 23.0173 8.57009 10.6992
1 23.0017 9.37242 9.9102
1 22.2011 8.57844 9.93
1 23.811 9.36379 10.6992
1 24.6047 8.57009 10.6992
1 24.5725 9.33928 9.90877
1 23.8093 8.56664 9.89997
1 25.3984 9.36379 10.6992
1 26.1921 8.57009 10.6992
1 26.196 9.35513 9.91504
1 25.3859 8.55208 9.91202
1 26.9858 9.36379 10.6992
1 27.7795 8.57009 10.6992
1 27.7794 9.34061 9.90266
1 26.9727 8.54614 9.91727
1 28.5732 9.36379 10.6992
1 29.3669 8.57009 10.6992
1 29.3143 9.36352 9.87665
1 28.5634 8.57082 9.88532
1 0 7.77639 10.6992
1 0.793701 6.98268 10.6992
1 0.843356 7.80478 9.91275
1 0.0912265 6.97758 9.89072
1 1.5874 7.77639 10.6992
1 2.3811 6.98268 10.6992
1 2.41601 7.75844 9.92557
1 1.60308 6.95396 9.90535
1 3.1748 7.77639 10.6992
1 3.9685 6.98268 10.6992
1 3.99024 7.7527 9.94005
1 3.19295 6.97106 9.89863
1 4.7622 7.77639 10.6992
1 5.5559 6.98268 10.6992
1 5.59511 7.77399 9.89537
1 4.77457 6.98355 9.90485
1 6.3496 7.77639 10.6992
1 7.1433 6.98268 10.6992
1 7.16024 7.78328 9.89235
1 6.36584 6.97543 9.91463
1 7.93701 7.77639 10.6992
1 8.73071 6.98268 10.6992
1 8.75226 7.76118 9.8937
1 7.94174 6.95931 9.9425
1 9.52441 7.77639 10.6992
1 10.3181 6.98268 10.6992
1 10.3359 7.79952 9.90384
1 9.52484 6.96597 9.91496
1 11.1118 7.77639 10.6992
1 11.9055 6.98268 10.6992
1 11.9121 7.77209 9.90983
1 11.1092 6.9915 9.89299
1 12.6992 7.77639 10.6992
1 13.4929 6.98268 10.6992
1 13.5174 7.74991 9.88508
1 12.7243 6.96324 9.88839
1 14.2866 7.77639 10.6992
1 15.0803 6.98268 10.6992
1 15.0956 7.78881 9.89846
1 14.2966 6.97068 9.90573
1 15.874 7.77639 10.6992
1 16.6677 6.98268 10.6992
1 16.6627 7.79331 9.91022
1 15.8784 6.98638 9.90091
1 17.4614 7.77639 10.6992
1 18.2551 6.98268 10.6992
1 18.251 7.77373 9.92056
1 17.4424 6.97696 9.91834
1 19.0488 7.77639 10.6992
1 19.8425 6.98268 10.6992
1 19.8264 7.78397 9.89549
1 19.0311 6.99251 9.88787
1 20.6362 7.77639 10.6992
1 21.4299 6.98268 10.6992
1 21.4217 7.74905 9.90475
1 20.6305 6.97393 9.92697
1 22.2236 7.77639 10.6992
1 23.0173 6.98268 10.6992
1 23.0364 7.79568 9.90709
1 22.2284 6.98745 9.90313
1 23.811 7.77639 10.6992
1 24.6047 6.98268 10.6992
1 24.5974 7.76819 9.90401
1 23.8077 6.9914 9.90344
1 25.3984 7.77639 10.6992
1 26.1921 6.98268 10.6992
1 26.1792 7.76843 9.90532
1 25.3846 6.98214 9.90315
1 26.9858 7.77639 10.6992
1 27.7795 6.98268 10.6992
1 27.7571 7.78295 9.91414
1 26.9738 6.96158 9.89588
1 28.5732 7.77639 10.6992
1 29.3669 6.98268 10.6992
1 29.2906 7.74846 9.87327
1 28.5454 6.94568 9.90698
1 0 6.18898 10.6992
1 0.793701 5.39528 10.6992
1 0.827791 6.19476 9.88684
1 0.0582196 5.41198 9.89043
1 1.5874 6.18898 10.6992
1 2.3811 5.39528 10.6992
1 2.36749 6.16306 9.91097
1 1.59164 5.40534 9.90848
1 3.1748 6.18898 10.6992
1 3.9685 5.39528 10.6992
1 3.96665 6.17445 9.91476
1 3.18111 5.44122 9.90359
1 4.7622 6.18898 10.6992
1 5.5559 5.39528 10.6992
1 5.53583 6.18181 9.89639
1 4.79204 5.40466 9.90238
1 6.3496 6.18898 10.6992
1 7.1433 5.39528 10.6992
1 7.15016 6.19779 9.88045
1 6.36269 5.4214 9.90666
1 7.93701 6.18898 10.6992
1 8.73071 5.39528 10.6992
1 8.73071 6.18338 9.91646
1 7.95735 5.41238 9.88662
1 9.52441 6.18898 10.6992