9376
Atoms. Timestep: 4000000
1 30 3.55271e-15 10.7183
1 0.793701 29.2063 10.7183
1 0.833561 29.9595 9.88947
1 0.0761841 29.203 9.87302
1 1.5874 3.55271e-15 10.7183
1 2.3811 29.2063 10.7183
1 2.36088 29.915 9.89322
1 1.59659 29.1931 9.90379
1 3.1748 3.55271e-15 10.7183
1 3.9685 29.2063 10.7183
1 3.96277 29.9465 9.89763
1 3.18984 29.1705 9.89639
1 4.7622 3.55271e-15 10.7183
1 5.5559 29.2063 10.7183
1 5.5602 29.9465 9.90302
1 4.74365 29.1782 9.90571
1 6.3496 3.55271e-15 10.7183
1 7.1433 29.2063 10.7183
1 7.13583 29.9289 9.90222
1 6.35251 29.1938 9.92448
1 7.93701 3.55271e-15 10.7183
1 8.73071 29.2063 10.7183
1 8.72767 29.9191 9.86867
1 7.94892 29.1584 9.90575
1 9.52441 3.55271e-15 10.7183
1 10.3181 29.2063 10.7183
1 10.3212 29.9282 9.89736
1 9.51075 29.1573 9.92891
1 11.1118 3.55271e-15 10.7183
1 11.9055 29.2063 10.7183
1 11.9277 29.9388 9.89597
1 11.12 29.168 9.92191
1 12.6992 3.55271e-15 10.7183
1 13.4929 29.2063 10.7183
1 13.4698 29.9154 9.89421
1 12.6942 29.1891 9.91744
1 14.2866 3.55271e-15 10.7183
1 15.0803 29.2063 10.7183
1 15.0921 29.9198 9.87956
1 14.2673 29.1796 9.90138
1 15.874 3.55271e-15 10.7183
1 16.6677 29.2063 10.7183
1 16.6823 29.9491 9.89899
1 15.8783 29.1545 9.89881
1 17.4614 3.55271e-15 10.7183
1 18.2551 29.2063 10.7183
1 18.2703 29.8945 9.89253
1 17.4602 29.1548 9.90359
1 19.0488 3.55271e-15 10.7183
1 19.8425 29.2063 10.7183
1 19.8308 29.9233 9.89459
1 19.0669 29.1664 9.9286
1 20.6362 3.55271e-15 10.7183
1 21.4299 29.2063 10.7183
1 21.4514 29.9476 9.90344
1 20.6326 29.1729 9.92924
1 22.2236 3.55271e-15 10.7183
1 23.0173 29.2063 10.7183
1 23.0315 29.9285 9.90054
1 22.2448 29.1721 9.9235
1 23.811 3.55271e-15 10.7183
1 24.6047 29.2063 10.7183
1 24.602 29.9243 9.89701
1 23.7994 29.1832 9.89076
1 25.3984 3.55271e-15 10.7183
1 26.1921 29.2063 10.7183
1 26.1746 29.9248 9.88707
1 25.3947 29.1823 9.91982
1 26.9858 3.55271e-15 10.7183
1 27.7795 29.2063 10.7183
1 27.7623 29.9131 9.8803
1 26.9784 29.1682 9.9251
1 28.5732 3.55271e-15 10.7183
1 29.3669 29.2063 10.7183
1 29.3158 29.985 9.85276
1 28.5746 29.1789 9.89357
1 30 28.4126 10.7183
1 0.793701 27.6189 10.7183
1 0.829721 28.415 9.89228
1 0.0711132 27.6232 9.89612
1 1.5874 28.4126 10.7183
1 2.3811 27.6189 10.7183
1 2.37216 28.3916 9.89462
1 1.60809 27.6371 9.91867
1 3.1748 28.4126 10.7183
1 3.9685 27.6189 10.7183
1 3.9825 28.3945 9.9304
1 3.19439 27.5885 9.93623
1 4.7622 28.4126 10.7183
1 5.5559 27.6189 10.7183
1 5.57978 28.4003 9.94076
1 4.78785 27.6009 9.94075
1 6.3496 28.4126 10.7183
1 7.1433 27.6189 10.7183
1 7.12514 28.3822 9.90508
1 6.35113 27.6451 9.93381
1 7.93701 28.4126 10.7183
1 8.73071 27.6189 10.7183
1 8.76244 28.3814 9.92526
1 7.91748 27.6174 9.93296
1 9.52441 28.4126 10.7183
1 10.3181 27.6189 10.7183
1 10.3121 28.385 9.92207
1 9.52303 27.573 9.9118
1 11.1118 28.4126 10.7183
1 11.9055 27.6189 10.7183
1 11.8932 28.3886 9.9255
1 11.1095 27.6054 9.92946
1 12.6992 28.4126 10.7183
1 13.4929 27.6189 10.7183
1 13.501 28.4004 9.90509
1 12.7027 27.6037 9.9272
1 14.2866 28.4126 10.7183
1 15.0803 27.6189 10.7183
1 15.0493 28.4015 9.92383
1 14.2947 27.6281 9.94404
1 15.874 28.4126 10.7183
1 16.6677 27.6189 10.7183
1 16.7013 28.3826 9.91726
1 15.8581 27.636 9.92757
1 17.4614 28.4126 10.7183
1 18.2551 27.6189 10.7183
1 18.2586 28.4013 9.92143
1 17.4719 27.618 9.93708
1 19.0488 28.4126 10.7183
1 19.8425 27.6189 10.7183
1 19.8376 28.3852 9.91093
1 19.0534 27.6292 9.90135
1 20.6362 28.4126 10.7183
1 21.4299 27.6189 10.7183
1 21.4596 28.3782 9.91026
1 20.6381 27.6078 9.92328
1 22.2236 28.4126 10.7183
1 23.0173 27.6189 10.7183
1 23.0103 28.3752 9.90895
1 22.2173 27.6121 9.89988
1 23.811 28.4126 10.7183
1 24.6047 27.6189 10.7183
1 24.6019 28.3989 9.9093
1 23.8398 27.6123 9.92504
1 25.3984 28.4126 10.7183
1 26.1921 27.6189 10.7183
1 26.1806 28.392 9.91001
1 25.3882 27.5949 9.92155
1 26.9858 28.4126 10.7183
1 27.7795 27.6189 10.7183
1 27.7789 28.414 9.92761
1 26.9829 27.61 9.92283
1 28.5732 28.4126 10.7183
1 29.3669 27.6189 10.7183
1 29.3194 28.4293 9.88868
1 28.592 27.595 9.92414
1 30 26.8252 10.7183
1 0.793701 26.0315 10.7183
1 0.818295 26.8064 9.90936
1 0.0861878 26.0261 9.90745
1 1.5874 26.8252 10.7183
1 2.3811 26.0315 10.7183
1 2.40844 26.8133 9.93623
1 1.59489 26.0254 9.91803
1 3.1748 26.8252 10.7183
1 3.9685 26.0315 10.7183
1 3.99812 26.8084 9.92895
1 3.18202 26.0165 9.9255
1 4.7622 26.8252 10.7183
1 5.5559 26.0315 10.7183
1 5.56684 26.8262 9.91356
1 4.78963 26.0149 9.91878
1 6.3496 26.8252 10.7183
1 7.1433 26.0315 10.7183
1 7.13211 26.8214 9.92822
1 6.36533 26.0406 9.92524
1 7.93701 26.8252 10.7183
1 8.73071 26.0315 10.7183
1 8.7456 26.8177 9.92192
1 7.93847 26.0673 9.90921
1 9.52441 26.8252 10.7183
1 10.3181 26.0315 10.7183
1 10.3327 26.8271 9.90612
1 9.52102 26.0331 9.94387
1 11.1118 26.8252 10.7183
1 11.9055 26.0315 10.7183
1 11.9224 26.8005 9.91562
1 11.1103 26.0204 9.93968
1 12.6992 26.8252 10.7183
1 13.4929 26.0315 10.7183
1 13.5143 26.8181 9.94162
1 12.6963 26.0174 9.92481
1 14.2866 26.8252 10.7183
1 15.0803 26.0315 10.7183
1 15.0708 26.785 9.93439
1 14.3245 26.0188 9.92823
1 15.874 26.8252 10.7183
1 16.6677 26.0315 10.7183
1 16.6833 26.8324 9.9095
1 15.8598 26.0204 9.92558
1 17.4614 26.8252 10.7183
1 18.2551 26.0315 10.7183
1 18.245 26.8197 9.92771
1 17.4559 26.0124 9.938
1 19.0488 26.8252 10.7183
1 19.8425 26.0315 10.7183
1 19.8291 26.8181 9.90414
1 19.0455 26.0036 9.89898
1 20.6362 26.8252 10.7183
1 21.4299 26.0315 10.7183
1 21.4266 26.7869 9.90374
1 20.6383 26.0323 9.92958
1 22.2236 26.8252 10.7183
1 23.0173 26.0315 10.7183
1 23.0269 26.8408 9.92632
1 22.2579 26.0369 9.93973
1 23.811 26.8252 10.7183
1 24.6047 26.0315 10.7183
1 24.6175 26.8376 9.96587
1 23.8353 26.0234 9.91725
1 25.3984 26.8252 10.7183
1 26.1921 26.0315 10.7183
1 26.2203 26.8062 9.93784
1 25.3896 26.0383 9.94635
1 26.9858 26.8252 10.7183
1 27.7795 26.0315 10.7183
1 27.7806 26.8005 9.94449
1 26.9713 25.9936 9.93598
1 28.5732 26.8252 10.7183
1 29.3669 26.0315 10.7183
1 29.3219 26.8226 9.89365
1 28.5439 26.0365 9.91823
1 30 25.2378 10.7183
1 0.793701 24.4441 10.7183
1 0.837549 25.229 9.9188
1 0.0487924 24.4348 9.87958
1 1.5874 25.2378 10.7183
1 2.3811 24.4441 10.7183
1 2.39767 25.2348 9.918
1 1.61274 24.4543 9.95059
1 3.1748 25.2378 10.7183
1 3.9685 24.4441 10.7183
1 3.96882 25.2527 9.93784
1 3.15776 24.4502 9.93069
1 4.7622 25.2378 10.7183
1 5.5559 24.4441 10.7183
1 5.56651 25.2334 9.92872
1 4.74357 24.4559 9.93657
1 6.3496 25.2378 10.7183
1 7.1433 24.4441 10.7183
1 7.14006 25.2356 9.914
1 6.37798 24.4369 9.91615
1 7.93701 25.2378 10.7183
1 8.73071 24.4441 10.7183
1 8.73446 25.2348 9.94038
1 7.95141 24.408 9.91694
1 9.52441 25.2378 10.7183
1 10.3181 24.4441 10.7183
1 10.3171 25.2461 9.91631
1 9.51024 24.4508 9.93199
1 11.1118 25.2378 10.7183
1 11.9055 24.4441 10.7183
1 11.8978 25.2452 9.9141
1 11.1234 24.4516 9.94031
1 12.6992 25.2378 10.7183
1 13.4929 24.4441 10.7183
1 13.4952 25.2208 9.932
1 12.712 24.4197 9.92623
1 14.2866 25.2378 10.7183
1 15.0803 24.4441 10.7183
1 15.1199 25.2291 9.90912
1 14.2841 24.4372 9.91774
1 15.874 25.2378 10.7183
1 16.6677 24.4441 10.7183
1 16.6638 25.2382 9.92329
1 15.8966 24.4323 9.92878
1 17.4614 25.2378 10.7183
1 18.2551 24.4441 10.7183
1 18.2308 25.2142 9.91764
1 17.464 24.4448 9.94587
1 19.0488 25.2378 10.7183
1 19.8425 24.4441 10.7183
1 19.8148 25.2178 9.95984
1 19.0203 24.4346 9.92915
1 20.6362 25.2378 10.7183
1 21.4299 24.4441 10.7183
1 21.438 25.2414 9.94139
1 20.6531 24.4452 9.91626
1 22.2236 25.2378 10.7183
1 23.0173 24.4441 10.7183
1 23.0218 25.2346 9.90213
1 22.2336 24.4388 9.92115
1 23.811 25.2378 10.7183
1 24.6047 24.4441 10.7183
1 24.6104 25.221 9.91842
1 23.8478 24.4444 9.90599
1 25.3984 25.2378 10.7183
1 26.1921 24.4441 10.7183
1 26.1624 25.2532 9.914
1 25.3957 24.4335 9.93079
1 26.9858 25.2378 10.7183
1 27.7795 24.4441 10.7183
1 27.7572 25.2293 9.89526
1 26.9836 24.4621 9.90918
1 28.5732 25.2378 10.7183
1 29.3669 24.4441 10.7183
1 29.2963 25.2542 9.9102
1 28.5452 24.4421 9.93516
1 30 23.6504 10.7183
1 0.793701 22.8567 10.7183
1 0.837971 23.6439 9.88128
1 0.055565 22.8481 9.88887
1 1.5874 23.6504 10.7183
1 2.3811 22.8567 10.7183
1 2.37768 23.6071 9.92318
1 1.61088 22.8474 9.9203
1 3.1748 23.6504 10.7183
1 3.9685 22.8567 10.7183
1 3.98548 23.6465 9.90182
1 3.20959 22.8658 9.94801
1 4.7622 23.6504 10.7183
1 5.5559 22.8567 10.7183
1 5.55074 23.6743 9.94704
1 4.75886 22.8842 9.90398
1 6.3496 23.6504 10.7183
1 7.1433 22.8567 10.7183
1 7.12695 23.6478 9.90131
1 6.34773 22.8348 9.90112
1 7.93701 23.6504 10.7183
1 8.73071 22.8567 10.7183
1 8.75199 23.6528 9.92915
1 7.92439 22.8524 9.92559
1 9.52441 23.6504 10.7183
1 10.3181 22.8567 10.7183
1 10.3001 23.6577 9.914
1 9.50937 22.8628 9.93234
1 11.1118 23.6504 10.7183
1 11.9055 22.8567 10.7183
1 11.8921 23.6493 9.92076
1 11.0785 22.8432 9.92949
1 12.6992 23.6504 10.7183
1 13.4929 22.8567 10.7183
1 13.489 23.6268 9.93281
1 12.6747 22.8646 9.93219
1 14.2866 23.6504 10.7183
1 15.0803 22.8567 10.7183
1 15.099 23.6353 9.92931
1 14.3119 22.881 9.94129
1 15.874 23.6504 10.7183
1 16.6677 22.8567 10.7183
1 16.6711 23.6338 9.92992
1 15.8734 22.8315 9.92809
1 17.4614 23.6504 10.7183
1 18.2551 22.8567 10.7183
1 18.2363 23.6486 9.92202
1 17.4587 22.8508 9.93775
1 19.0488 23.6504 10.7183
1 19.8425 22.8567 10.7183
1 19.8417 23.6424 9.93817
1 19.0626 22.8547 9.93697
1 20.6362 23.6504 10.7183
1 21.4299 22.8567 10.7183
1 21.4457 23.6666 9.9205
1 20.6517 22.8579 9.94947
1 22.2236 23.6504 10.7183
1 23.0173 22.8567 10.7183
1 23.0076 23.6792 9.92839
1 22.2395 22.8563 9.93021
1 23.811 23.6504 10.7183
1 24.6047 22.8567 10.7183
1 24.6335 23.6488 9.935
1 23.7919 22.8634 9.93235
1 25.3984 23.6504 10.7183
1 26.1921 22.8567 10.7183
1 26.2044 23.6463 9.92927
1 25.3962 22.8757 9.92595
1 26.9858 23.6504 10.7183
1 27.7795 22.8567 10.7183
1 27.7557 23.6591 9.92818
1 26.9957 22.8866 9.95852
1 28.5732 23.6504 10.7183
1 29.3669 22.8567 10.7183
1 29.3132 23.6268 9.90487
1 28.5059 22.8609 9.9173
1 30 22.063 10.7183
1 0.793701 21.2693 10.7183
1 0.810229 22.057 9.90868
1 0.0323931 21.2663 9.88097
1 1.5874 22.063 10.7183
1 2.3811 21.2693 10.7183
1 2.42475 22.0738 9.92224
1 1.60597 21.3089 9.89647
1 3.1748 22.063 10.7183
1 3.9685 21.2693 10.7183
1 3.97542 22.0652 9.91423
1 3.1733 21.3018 9.92451
1 4.7622 22.063 10.7183
1 5.5559 21.2693 10.7183
1 5.56705 22.0455 9.93658
1 4.74541 21.2655 9.92182
1 6.3496 22.063 10.7183
1 7.1433 21.2693 10.7183
1 7.14572 22.0399 9.92277
1 6.34593 21.26 9.92278
1 7.93701 22.063 10.7183
1 8.73071 21.2693 10.7183
1 8.72649 22.0372 9.95284
1 7.94656 21.2661 9.95105
1 9.52441 22.063 10.7183
1 10.3181 21.2693 10.7183
1 10.3098 22.0632 9.9282
1 9.52905 21.2349 9.95399
1 11.1118 22.063 10.7183
1 11.9055 21.2693 10.7183
1 11.9131 22.0446 9.92536
1 11.1296 21.305 9.94078
1 12.6992 22.063 10.7183
1 13.4929 21.2693 10.7183
1 13.4846 22.0799 9.9371
1 12.7009 21.2409 9.90021
1 14.2866 22.063 10.7183
1 15.0803 21.2693 10.7183
1 15.0943 22.0588 9.93727
1 14.2744 21.2675 9.91533
1 15.874 22.063 10.7183
1 16.6677 21.2693 10.7183
1 16.6981 22.0471 9.91531
1 15.8746 21.2761 9.91891
1 17.4614 22.063 10.7183
1 18.2551 21.2693 10.7183
1 18.2512 22.0483 9.91845
1 17.4767 21.2618 9.92479
1 19.0488 22.063 10.7183
1 19.8425 21.2693 10.7183
1 19.8542 22.0357 9.95355
1 19.0419 21.2496 9.93319
1 20.6362 22.063 10.7183
1 21.4299 21.2693 10.7183
1 21.4499 22.0883 9.91629
1 20.6582 21.2409 9.90521
1 22.2236 22.063 10.7183
1 23.0173 21.2693 10.7183
1 23.0059 22.0744 9.945
1 22.2328 21.2684 9.93569
1 23.811 22.063 10.7183
1 24.6047 21.2693 10.7183
1 24.608 22.0521 9.92952
1 23.8069 21.2639 9.89873
1 25.3984 22.063 10.7183
1 26.1921 21.2693 10.7183
1 26.2114 22.0814 9.94699
1 25.4034 21.2857 9.94088
1 26.9858 22.063 10.7183
1 27.7795 21.2693 10.7183
1 27.7754 22.047 9.92162
1 26.9783 21.2776 9.94256
1 28.5732 22.063 10.7183
1 29.3669 21.2693 10.7183
1 29.2886 22.0698 9.88137
1 28.5785 21.2624 9.92795
1 30 20.4756 10.7183
1 0.793701 19.6819 10.7183
1 0.855805 20.4559 9.91024
1 0.0700854 19.6779 9.8663
1 1.5874 20.4756 10.7183
1 2.3811 19.6819 10.7183
1 2.38861 20.495 9.92118
1 1.60991 19.6701 9.89927
1 3.1748 20.4756 10.7183
1 3.9685 19.6819 10.7183
1 3.97094 20.475 9.92993
1 3.15688 19.6915 9.91805
1 4.7622 20.4756 10.7183
1 5.5559 19.6819 10.7183
1 5.55461 20.4689 9.94551
1 4.7584 19.6649 9.93635
1 6.3496 20.4756 10.7183
1 7.1433 19.6819 10.7183
1 7.13853 20.4662 9.94672
1 6.34921 19.6795 9.93806
1 7.93701 20.4756 10.7183
1 8.73071 19.6819 10.7183
1 8.73366 20.4739 9.92746
1 7.94437 19.6805 9.93063
1 9.52441 20.4756 10.7183
1 10.3181 19.6819 10.7183
1 10.3086 20.4608 9.95531
1 9.51178 19.6628 9.93154
1 11.1118 20.4756 10.7183
1 11.9055 19.6819 10.7183
1 11.9016 20.4908 9.94081
1 11.1101 19.7065 9.9061
1 12.6992 20.4756 10.7183
1 13.4929 19.6819 10.7183
1 13.4926 20.4773 9.92036
1 12.6935 19.7117 9.90584
1 14.2866 20.4756 10.7183
1 15.0803 19.6819 10.7183
1 15.0804 20.4829 9.92303
1 14.2629 19.6866 9.9202
1 15.874 20.4756 10.7183
1 16.6677 19.6819 10.7183
1 16.682 20.483 9.92827
1 15.9012 19.6947 9.93824
1 17.4614 20.4756 10.7183
1 18.2551 19.6819 10.7183
1 18.2337 20.4479 9.89943
1 17.4617 19.6837 9.95879
1 19.0488 20.4756 10.7183
1 19.8425 19.6819 10.7183
1 19.8669 20.476 9.93743
1 19.0749 19.6904 9.93081
1 20.6362 20.4756 10.7183
1 21.4299 19.6819 10.7183
1 21.4344 20.4609 9.92724
1 20.6589 19.6709 9.91177
1 22.2236 20.4756 10.7183
1 23.0173 19.6819 10.7183
1 23.0126 20.4896 9.91833
1 22.2278 19.6552 9.933
1 23.811 20.4756 10.7183
1 24.6047 19.6819 10.7183
1 24.5828 20.4962 9.93464
1 23.8199 19.6887 9.93839
1 25.3984 20.4756 10.7183
1 26.1921 19.6819 10.7183
1 26.2038 20.4869 9.91518
1 25.3647 19.6791 9.93022
1 26.9858 20.4756 10.7183
1 27.7795 19.6819 10.7183
1 27.7809 20.4667 9.91262
1 26.9836 19.6604 9.93843
1 28.5732 20.4756 10.7183
1 29.3669 19.6819 10.7183
1 29.32 20.4713 9.90211
1 28.5627 19.6728 9.91822
1 30 18.8882 10.7183
1 0.793701 18.0945 10.7183
1 0.820256 18.8948 9.91671
1 0.0633246 18.1048 9.89118
1 1.5874 18.8882 10.7183
1 2.3811 18.0945 10.7183
1 2.37103 18.8944 9.91522
1 1.60187 18.1062 9.92066
1 3.1748 18.8882 10.7183
1 3.9685 18.0945 10.7183
1 3.96728 18.8717 9.92804
1 3.16128 18.084 9.91977
1 4.7622 18.8882 10.7183
1 5.5559 18.0945 10.7183
1 5.57569 18.8627 9.91386
1 4.75465 18.1017 9.91762
1 6.3496 18.8882 10.7183
1 7.1433 18.0945 10.7183
1 7.13537 18.8734 9.93751
1 6.37086 18.0532 9.93676
1 7.93701 18.8882 10.7183
1 8.73071 18.0945 10.7183
1 8.73377 18.8956 9.9488
1 7.94449 18.1077 9.93016
1 9.52441 18.8882 10.7183
1 10.3181 18.0945 10.7183
1 10.3454 18.9146 9.90927
1 9.54338 18.1193 9.92734
1 11.1118 18.8882 10.7183
1 11.9055 18.0945 10.7183
1 11.9097 18.8815 9.89335
1 11.1217 18.1031 9.91739
1 12.6992 18.8882 10.7183
1 13.4929 18.0945 10.7183
1 13.4842 18.9098 9.91354
1 12.7093 18.1155 9.92926
1 14.2866 18.8882 10.7183
1 15.0803 18.0945 10.7183
1 15.0819 18.8851 9.92687
1 14.2758 18.1019 9.91848
1 15.874 18.8882 10.7183
1 16.6677 18.0945 10.7183
1 16.6846 18.8922 9.93658
1 15.8831 18.1087 9.92677
1 17.4614 18.8882 10.7183
1 18.2551 18.0945 10.7183
1 18.2633 18.8787 9.92544
1 17.4883 18.1113 9.93949
1 19.0488 18.8882 10.7183
1 19.8425 18.0945 10.7183
1 19.8686 18.8935 9.92234
1 19.0535 18.1142 9.92737
1 20.6362 18.8882 10.7183
1 21.4299 18.0945 10.7183
1 21.4266 18.8847 9.92913
1 20.6563 18.1102 9.9234
1 22.2236 18.8882 10.7183
1 23.0173 18.0945 10.7183
1 23.0062 18.8867 9.96549
1 22.2335 18.0822 9.94338
1 23.811 18.8882 10.7183
1 24.6047 18.0945 10.7183
1 24.5965 18.902 9.91531
1 23.8285 18.1172 9.93426
1 25.3984 18.8882 10.7183
1 26.1921 18.0945 10.7183
1 26.1862 18.8846 9.91403
1 25.3737 18.0805 9.91952
1 26.9858 18.8882 10.7183
1 27.7795 18.0945 10.7183
1 27.7696 18.8735 9.90882
1 26.9785 18.0873 9.92751
1 28.5732 18.8882 10.7183
1 29.3669 18.0945 10.7183
1 29.3038 18.8702 9.89238
1 28.518 18.1123 9.90021
1 30 17.3008 10.7183
1 0.793701 16.5071 10.7183
1 0.820891 17.3393 9.91512
1 0.0794249 16.5145 9.90715
1 1.5874 17.3008 10.7183
1 2.3811 16.5071 10.7183
1 2.40291 17.2897 9.93457
1 1.60572 16.5219 9.95004
1 3.1748 17.3008 10.7183
1 3.9685 16.5071 10.7183
1 3.98167 17.3064 9.93435
1 3.18533 16.503 9.93027
1 4.7622 17.3008 10.7183
1 5.5559 16.5071 10.7183
1 5.57908 17.3138 9.90176
1 4.78021 16.5075 9.91897
1 6.3496 17.3008 10.7183
1 7.1433 16.5071 10.7183
1 7.15857 17.3255 9.94151
1 6.3566 16.5387 9.93559
1 7.93701 17.3008 10.7183
1 8.73071 16.5071 10.7183
1 8.73545 17.3045 9.94521
1 7.91667 16.5232 9.93064
1 9.52441 17.3008 10.7183
1 10.3181 16.5071 10.7183
1 10.3423 17.3029 9.93183
1 9.52062 16.5246 9.93677
1 11.1118 17.3008 10.7183
1 11.9055 16.5071 10.7183
1 11.9119 17.3312 9.9096
1 11.1271 16.5247 9.91463
1 12.6992 17.3008 10.7183
1 13.4929 16.5071 10.7183
1 13.4981 17.2923 9.91912
1 12.6821 16.5071 9.91499
1 14.2866 17.3008 10.7183
1 15.0803 16.5071 10.7183
1 15.0562 17.3137 9.93028
1 14.2899 16.4745 9.9246
1 15.874 17.3008 10.7183
1 16.6677 16.5071 10.7183
1 16.6721 17.3045 9.93743
1 15.882 16.5251 9.92456
1 17.4614 17.3008 10.7183
1 18.2551 16.5071 10.7183
1 18.2525 17.3058 9.91945
1 17.4477 16.5208 9.94147
1 19.0488 17.3008 10.7183
1 19.8425 16.5071 10.7183
1 19.844 17.2683 9.91857
1 19.0359 16.4887 9.92952
1 20.6362 17.3008 10.7183
1 21.4299 16.5071 10.7183
1 21.399 17.2956 9.92544
1 20.6531 16.5076 9.91737
1 22.2236 17.3008 10.7183
1 23.0173 16.5071 10.7183
1 23.0062 17.2993 9.91387
1 22.1981 16.5207 9.92759
1 23.811 17.3008 10.7183
1 24.6047 16.5071 10.7183
1 24.6062 17.3063 9.92961
1 23.7992 16.501 9.93075
1 25.3984 17.3008 10.7183
1 26.1921 16.5071 10.7183
1 26.1774 17.294 9.92769
1 25.3824 16.4892 9.91483
1 26.9858 17.3008 10.7183
1 27.7795 16.5071 10.7183
1 27.7635 17.2979 9.90725
1 26.9885 16.5 9.91448
1 28.5732 17.3008 10.7183
1 29.3669 16.5071 10.7183
1 29.2957 17.3039 9.91327
1 28.5408 16.4935 9.90643
1 30 15.7134 10.7183
1 0.793701 14.9197 10.7183
1 0.82239 15.7327 9.90602
1 0.0497713 14.9567 9.89409
1 1.5874 15.7134 10.7183
1 2.3811 14.9197 10.7183
1 2.38798 15.7102 9.92483
1 1.59457 14.9206 9.9191
1 3.1748 15.7134 10.7183
1 3.9685 14.9197 10.7183
1 3.98915 15.7037 9.92314
1 3.2003 14.9239 9.92269
1 4.7622 15.7134 10.7183
1 5.5559 14.9197 10.7183
1 5.56562 15.7109 9.95051
1 4.78834 14.9156 9.95232
1 6.3496 15.7134 10.7183
1 7.1433 14.9197 10.7183
1 7.14559 15.7296 9.93807
1 6.35599 14.9206 9.92688
1 7.93701 15.7134 10.7183
1 8.73071 14.9197 10.7183
1 8.73392 15.708 9.9394
1 7.93057 14.9238 9.91724
1 9.52441 15.7134 10.7183
1 10.3181 14.9197 10.7183
1 10.3367 15.6995 9.94231
1 9.55591 14.9152 9.9225
1 11.1118 15.7134 10.7183
1 11.9055 14.9197 10.7183
1 11.8935 15.7168 9.9314
1 11.1157 14.923 9.90935
1 12.6992 15.7134 10.7183
1 13.4929 14.9197 10.7183
1 13.4788 15.7074 9.92178
1 12.6858 14.9269 9.92819
1 14.2866 15.7134 10.7183
1 15.0803 14.9197 10.7183
1 15.0563 15.6996 9.9534
1 14.2892 14.9167 9.91112
1 15.874 15.7134 10.7183
1 16.6677 14.9197 10.7183
1 16.6709 15.7154 9.91419
1 15.863 14.8932 9.92498
1 17.4614 15.7134 10.7183
1 18.2551 14.9197 10.7183
1 18.2653 15.6745 9.908
1 17.4622 14.9248 9.9299
1 19.0488 15.7134 10.7183
1 19.8425 14.9197 10.7183
1 19.8331 15.7025 9.91716
1 19.0487 14.9077 9.9285
1 20.6362 15.7134 10.7183
1 21.4299 14.9197 10.7183
1 21.4147 15.7212 9.92527
1 20.6524 14.9164 9.92051
1 22.2236 15.7134 10.7183
1 23.0173 14.9197 10.7183
1 23.0142 15.715 9.92234
1 22.2235 14.941 9.92829
1 23.811 15.7134 10.7183
1 24.6047 14.9197 10.7183
1 24.5996 15.7069 9.92208
1 23.8354 14.9174 9.93
1 25.3984 15.7134 10.7183
1 26.1921 14.9197 10.7183
1 26.1696 15.6965 9.89982
1 25.3872 14.9094 9.92043
1 26.9858 15.7134 10.7183
1 27.7795 14.9197 10.7183
1 27.7613 15.7377 9.94917
1 26.9694 14.8886 9.93501
1 28.5732 15.7134 10.7183
1 29.3669 14.9197 10.7183
1 29.3216 15.7219 9.89421
1 28.5565 14.9326 9.91321
1 30 14.126 10.7183
1 0.793701 13.3323 10.7183
1 0.826723 14.1447 9.92239
1 0.0902611 13.3398 9.89953
1 1.5874 14.126 10.7183
1 2.3811 13.3323 10.7183
1 2.4048 14.1242 9.92539
1 1.59696 13.3516 9.91921
1 3.1748 14.126 10.7183
1 3.9685 13.3323 10.7183
1 3.98391 14.0985 9.91074
1 3.16894 13.3455 9.926
1 4.7622 14.126 10.7183
1 5.5559 13.3323 10.7183
1 5.56235 14.1171 9.92968
1 4.77425 13.3349 9.90761
1 6.3496 14.126 10.7183
1 7.1433 13.3323 10.7183
1 7.17413 14.1051 9.92023
1 6.34165 13.3485 9.92466
1 7.93701 14.126 10.7183
1 8.73071 13.3323 10.7183
1 8.723 14.1348 9.93152
1 7.93827 13.3541 9.90979
1 9.52441 14.126 10.7183
1 10.3181 13.3323 10.7183
1 10.3188 14.1012 9.9453
1 9.54928 13.3336 9.92717
1 11.1118 14.126 10.7183
1 11.9055 13.3323 10.7183
1 11.9134 14.127 9.92586
1 11.119 13.3508 9.93532
1 12.6992 14.126 10.7183
1 13.4929 13.3323 10.7183
1 13.4696 14.1395 9.93329
1 12.708 13.3347 9.91772
1 14.2866 14.126 10.7183
1 15.0803 13.3323 10.7183
1 15.0885 14.0885 9.9393
1 14.2813 13.3245 9.91242
1 15.874 14.126 10.7183
1 16.6677 13.3323 10.7183
1 16.6677 14.1226 9.91887
1 15.8728 13.3356 9.91412
1 17.4614 14.126 10.7183
1 18.2551 13.3323 10.7183
1 18.2471 14.1281 9.91829
1 17.4409 13.3473 9.91182
1 19.0488 14.126 10.7183
1 19.8425 13.3323 10.7183
1 19.8633 14.1271 9.93396
1 19.0343 13.3391 9.92312
1 20.6362 14.126 10.7183
1 21.4299 13.3323 10.7183
1 21.4415 14.0939 9.8923
1 20.6297 13.3127 9.92135
1 22.2236 14.126 10.7183
1 23.0173 13.3323 10.7183
1 23.0132 14.1323 9.91137
1 22.234 13.3272 9.95055
1 23.811 14.126 10.7183
1 24.6047 13.3323 10.7183
1 24.5901 14.1093 9.93023
1 23.799 13.3233 9.9399
1 25.3984 14.126 10.7183
1 26.1921 13.3323 10.7183
1 26.1836 14.1053 9.91159
1 25.3881 13.3463 9.93791
1 26.9858 14.126 10.7183
1 27.7795 13.3323 10.7183
1 27.7441 14.1284 9.92175
1 26.974 13.3476 9.93552
1 28.5732 14.126 10.7183
1 29.3669 13.3323 10.7183
1 29.3054 14.1369 9.87719
1 28.5477 13.3308 9.91373
1 30 12.5386 10.7183
1 0.793701 11.7449 10.7183
1 0.836383 12.5242 9.90991
1 0.0824566 11.7174 9.88918
1 1.5874 12.5386 10.7183
1 2.3811 11.7449 10.7183
1 2.3811 12.5342 9.90923
1 1.58861 11.7458 9.92371
1 3.1748 12.5386 10.7183
1 3.9685 11.7449 10.7183
1 3.95021 12.5367 9.9456
1 3.15917 11.7485 9.93299
1 4.7622 12.5386 10.7183
1 5.5559 11.7449 10.7183
1 5.55595 12.5331 9.92515
1 4.7671 11.7355 9.89871
1 6.3496 12.5386 10.7183
1 7.1433 11.7449 10.7183
1 7.14246 12.5283 9.9046
1 6.35049 11.7674 9.92646
1 7.93701 12.5386 10.7183
1 8.73071 11.7449 10.7183
1 8.71653 12.5724 9.93741
1 7.93403 11.7287 9.95448
1 9.52441 12.5386 10.7183
1 10.3181 11.7449 10.7183
1 10.3037 12.5526 9.91405
1 9.52452 11.7455 9.90836
1 11.1118 12.5386 10.7183
1 11.9055 11.7449 10.7183
1 11.9029 12.5368 9.94292
1 11.1096 11.7428 9.92851
1 12.6992 12.5386 10.7183
1 13.4929 11.7449 10.7183
1 13.4746 12.5063 9.90957
1 12.6999 11.7428 9.92599
1 14.2866 12.5386 10.7183
1 15.0803 11.7449 10.7183
1 15.0673 12.5321 9.90465
1 14.2708 11.7428 9.91601
1 15.874 12.5386 10.7183
1 16.6677 11.7449 10.7183
1 16.6605 12.5039 9.95693
1 15.9029 11.728 9.91301
1 17.4614 12.5386 10.7183
1 18.2551 11.7449 10.7183
1 18.275 12.5481 9.90722
1 17.4805 11.7545 9.93224
1 19.0488 12.5386 10.7183
1 19.8425 11.7449 10.7183
1 19.8348 12.5392 9.95786
1 19.0258 11.7303 9.91928
1 20.6362 12.5386 10.7183
1 21.4299 11.7449 10.7183
1 21.4357 12.5442 9.95725
1 20.6601 11.7648 9.93563
1 22.2236 12.5386 10.7183
1 23.0173 11.7449 10.7183
1 23.0115 12.5179 9.92658
1 22.2272 11.7223 9.93941
1 23.811 12.5386 10.7183
1 24.6047 11.7449 10.7183
1 24.6075 12.5463 9.93307
1 23.8234 11.7514 9.93396
1 25.3984 12.5386 10.7183
1 26.1921 11.7449 10.7183
1 26.1802 12.5341 9.92525
1 25.3961 11.7437 9.92956
1 26.9858 12.5386 10.7183
1 27.7795 11.7449 10.7183
1 27.7799 12.5142 9.93582
1 26.9691 11.7216 9.92207
1 28.5732 12.5386 10.7183
1 29.3669 11.7449 10.7183
1 29.317 12.5439 9.91489
1 28.5452 11.7423 9.9222
1 30 10.9512 10.7183
1 0.793701 10.1575 10.7183
1 0.83442 10.9632 9.92117
1 0.0606496 10.1651 9.88167
1 1.5874 10.9512 10.7183
1 2.3811 10.1575 10.7183
1 2.40215 10.9572 9.92469
1 1.59431 10.1629 9.89918
1 3.1748 10.9512 10.7183
1 3.9685 10.1575 10.7183
1 3.95968 10.9619 9.92324
1 3.1786 10.1759 9.92125
1 4.7622 10.9512 10.7183
1 5.5559 10.1575 10.7183
1 5.56398 10.9424 9.94559
1 4.76472 10.1569 9.91946
1 6.3496 10.9512 10.7183
1 7.1433 10.1575 10.7183
1 7.11705 10.9456 9.92916
1 6.36146 10.157 9.91933
1 7.93701 10.9512 10.7183
1 8.73071 10.1575 10.7183
1 8.72116 10.9523 9.90736
1 7.94985 10.1266 9.9399
1 9.52441 10.9512 10.7183
1 10.3181 10.1575 10.7183
1 10.3348 10.9571 9.90535
1 9.55427 10.167 9.93986
1 11.1118 10.9512 10.7183
1 11.9055 10.1575 10.7183
1 11.9007 10.9328 9.91816
1 11.1055 10.1381 9.89423
1 12.6992 10.9512 10.7183
1 13.4929 10.1575 10.7183
1 13.5102 10.9237 9.92303
1 12.7295 10.1577 9.91919
1 14.2866 10.9512 10.7183
1 15.0803 10.1575 10.7183
1 15.0765 10.9271 9.93152
1 14.313 10.1365 9.91511
1 15.874 10.9512 10.7183
1 16.6677 10.1575 10.7183
1 16.6625 10.9571 9.91279
1 15.8581 10.1461 9.93567
1 17.4614 10.9512 10.7183
1 18.2551 10.1575 10.7183
1 18.2439 10.9317 9.93317
1 17.4365 10.1246 9.92082
1 19.0488 10.9512 10.7183
1 19.8425 10.1575 10.7183
1 19.8457 10.9602 9.90426
1 19.0463 10.1538 9.93722
1 20.6362 10.9512 10.7183
1 21.4299 10.1575 10.7183
1 21.4186 10.929 9.93079
1 20.6288 10.1269 9.91519
1 22.2236 10.9512 10.7183
1 23.0173 10.1575 10.7183
1 22.9979 10.9095 9.92586
1 22.2095 10.1599 9.93463
1 23.811 10.9512 10.7183
1 24.6047 10.1575 10.7183
1 24.5971 10.9704 9.928
1 23.7965 10.1437 9.94419
1 25.3984 10.9512 10.7183
1 26.1921 10.1575 10.7183
1 26.193 10.9467 9.90273
1 25.3709 10.1733 9.92275
1 26.9858 10.9512 10.7183
1 27.7795 10.1575 10.7183
1 27.7646 10.9378 9.92229
1 26.9823 10.1478 9.94642
1 28.5732 10.9512 10.7183
1 29.3669 10.1575 10.7183
1 29.3041 10.9659 9.8881
1 28.5517 10.1388 9.90952
1 30 9.36379 10.7183
1 0.793701 8.57009 10.7183
1 0.812233 9.37707 9.92261
1 0.0862489 8.57974 9.88669
1 1.5874 9.36379 10.7183
1 2.3811 8.57009 10.7183
1 2.37597 9.35693 9.9365
1 1.586 8.56784 9.90512
1 3.1748 9.36379 10.7183
1 3.9685 8.57009 10.7183
1 3.99401 9.39696 9.91513
1 3.19051 8.59236 9.93083
1 4.7622 9.36379 10.7183
1 5.5559 8.57009 10.7183
1 5.55351 9.36477 9.91094
1 4.7729 8.57112 9.94081
1 6.3496 9.36379 10.7183
1 7.1433 8.57009 10.7183
1 7.12645 9.37628 9.90268
1 6.30967 8.58142 9.92057
1 7.93701 9.36379 10.7183
1 8.73071 8.57009 10.7183
1 8.75284 9.33334 9.95243
1 7.93519 8.54733 9.93904
1 9.52441 9.36379 10.7183
1 10.3181 8.57009 10.7183
1 10.3096 9.33971 9.93713
1 9.51093 8.55799 9.92081
1 11.1118 9.36379 10.7183
1 11.9055 8.57009 10.7183
1 11.9048 9.38282 9.93467
1 11.1043 8.59814 9.93244
1 12.6992 9.36379 10.7183
1 13.4929 8.57009 10.7183
1 13.4774 9.36396 9.91948
1 12.6855 8.59318 9.91193
1 14.2866 9.36379 10.7183
1 15.0803 8.57009 10.7183
1 15.091 9.33267 9.88678
1 14.2744 8.56732 9.93528
1 15.874 9.36379 10.7183
1 16.6677 8.57009 10.7183
1 16.6644 9.35771 9.93248
1 15.894 8.55204 9.93179
1 17.4614 9.36379 10.7183
1 18.2551 8.57009 10.7183
1 18.2585 9.35946 9.9094
1 17.4625 8.57624 9.90098
1 19.0488 9.36379 10.7183
1 19.8425 8.57009 10.7183
1 19.8527 9.37671 9.92263
1 19.0693 8.57966 9.9243
1 20.6362 9.36379 10.7183
1 21.4299 8.57009 10.7183
1 21.4338 9.36672 9.92219
1 20.6124 8.57696 9.93702
1 22.2236 9.36379 10.7183
1 23.0173 8.57009 10.7183
1 23.0174 9.34246 9.92935
1 22.2515 8.56677 9.91901
1 23.811 9.36379 10.7183
1 24.6047 8.57009 10.7183
1 24.6026 9.35224 9.94769
1 23.8134 8.57161 9.91861
1 25.3984 9.36379 10.7183
1 26.1921 8.57009 10.7183
1 26.1724 9.36759 9.94795
1 25.4084 8.57234 9.94707
1 26.9858 9.36379 10.7183
1 27.7795 8.57009 10.7183
1 27.7574 9.36241 9.91865
1 26.9623 8.59009 9.93064
1 28.5732 9.36379 10.7183
1 29.3669 8.57009 10.7183
1 29.3086 9.35733 9.88979
1 28.5498 8.53824 9.91962
1 30 7.77639 10.7183
1 0.793701 6.98268 10.7183
1 0.829716 7.8081 9.91395
1 0.0769397 6.98139 9.8773
1 1.5874 7.77639 10.7183
1 2.3811 6.98268 10.7183
1 2.37934 7.78223 9.91573
1 1.57635 6.99624 9.9257
1 3.1748 7.77639 10.7183
1 3.9685 6.98268 10.7183
1 3.98527 7.79391 9.9326
1 3.19581 7.00283 9.95662
1 4.7622 7.77639 10.7183
1 5.5559 6.98268 10.7183
1 5.55502 7.78483 9.91978
1 4.7743 6.98003 9.95805
1 6.3496 7.77639 10.7183
1 7.1433 6.98268 10.7183
1 7.14053 7.77927 9.9183
1 6.34526 7.00251 9.92935
1 7.93701 7.77639 10.7183
1 8.73071 6.98268 10.7183
1 8.72402 7.76881 9.93231
1 7.90844 6.9667 9.94255
1 9.52441 7.77639 10.7183
1 10.3181 6.98268 10.7183
1 10.3218 7.76523 9.922
1 9.55146 6.9766 9.91098
1 11.1118 7.77639 10.7183
1 11.9055 6.98268 10.7183
1 11.8871 7.79681 9.92787
1 11.1181 6.99972 9.89965
1 12.6992 7.77639 10.7183
1 13.4929 6.98268 10.7183
1 13.4876 7.79919 9.92945
1 12.699 7.00507 9.93992
1 14.2866 7.77639 10.7183
1 15.0803 6.98268 10.7183
1 15.1011 7.76866 9.95607
1 14.2876 6.98845 9.92949
1 15.874 7.77639 10.7183
1 16.6677 6.98268 10.7183
1 16.6792 7.76354 9.92883
1 15.8515 6.96887 9.95028
1 17.4614 7.77639 10.7183
1 18.2551 6.98268 10.7183
1 18.2788 7.7788 9.92952
1 17.4544 6.99598 9.92304
1 19.0488 7.77639 10.7183
1 19.8425 6.98268 10.7183
1 19.852 7.79601 9.92766
1 19.0522 6.97438 9.94935
1 20.6362 7.77639 10.7183
1 21.4299 6.98268 10.7183
1 21.4205 7.78812 9.93065
1 20.6589 6.97164 9.91436
1 22.2236 7.77639 10.7183
1 23.0173 6.98268 10.7183
1 23.0321 7.78396 9.90454
1 22.2362 6.9872 9.90649
1 23.811 7.77639 10.7183
1 24.6047 6.98268 10.7183
1 24.5773 7.76304 9.91638
1 23.7948 6.96587 9.93697
1 25.3984 7.77639 10.7183
1 26.1921 6.98268 10.7183
1 26.2057 7.77545 9.94297
1 25.4089 6.97307 9.93565
1 26.9858 7.77639 10.7183
1 27.7795 6.98268 10.7183
1 27.7567 7.77555 9.9224
1 27.0108 6.97807 9.94416
1 28.5732 7.77639 10.7183
1 29.3669 6.98268 10.7183
1 29.2925 7.76519 9.88285
1 28.545 6.99526 9.90464
1 30 6.18898 10.7183
1 0.793701 5.39528 10.7183
1 0.810889 6.18159 9.90495
1 0.0927317 5.41255 9.88789
1 1.5874 6.18898 10.7183
1 2.3811 5.39528 10.7183
1 2.37739 6.17148 9.90673
1 1.60711 5.39023 9.93629
1 3.1748 6.18898 10.7183
1 3.9685 5.39528 10.7183
1 3.96143 6.23256 9.93886
1 3.19187 5.39642 9.92919
1 4.7622 6.18898 10.7183
1 5.5559 5.39528 10.7183
1 5.54333 6.20572 9.93898
1 4.76169 5.39202 9.91421
1 6.3496 6.18898 10.7183
1 7.1433 5.39528 10.7183
1 7.14828 6.18219 9.93355
1 6.35672 5.39005 9.90787
1 7.93701 6.18898 10.7183
1 8.73071 5.39528 10.7183
1 8.73914 6.18402 9.9143
1 7.92682 5.3931 9.93119
1 9.52441 6.18898 10.7183