9376
Atoms. Timestep: 4000000
1 15 3.55271e-15 10.625
1 15.7937 29.2063 10.625
1 15.8057 29.9456 9.77135
1 15.0669 29.1821 9.80452
1 16.5874 3.55271e-15 10.625
1 17.3811 29.2063 10.625
1 17.4058 29.918 9.78526
1 16.5852 29.182 9.82065
1 18.1748 3.55271e-15 10.625
1 18.9685 29.2063 10.625
1 18.9746 29.9355 9.77516
1 18.2043 29.1404 9.82882
1 19.7622 3.55271e-15 10.625
1 20.5559 29.2063 10.625
1 20.5308 29.9289 9.80031
1 19.7549 29.1872 9.79009
1 21.3496 3.55271e-15 10.625
1 22.1433 29.2063 10.625
1 22.1448 29.9249 9.78994
1 21.3324 29.1801 9.80609
1 22.937 3.55271e-15 10.625
1 23.7307 29.2063 10.625
1 23.7349 29.9256 9.79456
1 22.9304 29.1806 9.83248
1 24.5244 3.55271e-15 10.625
1 25.3181 29.2063 10.625
1 25.3238 29.9423 9.78743
1 24.5402 29.1855 9.80564
1 26.1118 3.55271e-15 10.625
1 26.9055 29.2063 10.625
1 26.9066 29.9348 9.82174
1 26.1179 29.1815 9.84076
1 27.6992 3.55271e-15 10.625
1 28.4929 29.2063 10.625
1 28.4877 29.9241 9.83549
1 27.6874 29.1345 9.82496
1 29.2866 3.55271e-15 10.625
1 0.08031 29.2063 10.625
1 0.0761886 29.9429 9.81126
1 29.2668 29.1812 9.85119
1 0.874011 3.55271e-15 10.625
1 1.66771 29.2063 10.625
1 1.68727 29.9459 9.79455
1 0.868922 29.1778 9.82952
1 2.46141 3.55271e-15 10.625
1 3.25511 29.2063 10.625
1 3.23395 29.9346 9.80475
1 2.46334 29.199 9.83628
1 4.04881 3.55271e-15 10.625
1 4.84251 29.2063 10.625
1 4.8409 29.9429 9.80423
1 4.01673 29.1833 9.81275
1 5.63621 3.55271e-15 10.625
1 6.42991 29.2063 10.625
1 6.40521 29.9377 9.79932
1 5.64955 29.1602 9.83668
1 7.22361 3.55271e-15 10.625
1 8.01732 29.2063 10.625
1 8.00836 29.9084 9.78598
1 7.2065 29.1581 9.81474
1 8.81102 3.55271e-15 10.625
1 9.60472 29.2063 10.625
1 9.61379 29.9069 9.80693
1 8.82377 29.1922 9.84837
1 10.3984 3.55271e-15 10.625
1 11.1921 29.2063 10.625
1 11.187 29.9444 9.78936
1 10.3779 29.1677 9.86156
1 11.9858 3.55271e-15 10.625
1 12.7795 29.2063 10.625
1 12.7544 29.9316 9.79467
1 11.9862 29.1807 9.83459
1 13.5732 3.55271e-15 10.625
1 14.3669 29.2063 10.625
1 14.2897 29.9386 9.79585
1 13.5248 29.1863 9.81813
1 15 28.4126 10.625
1 15.7937 27.6189 10.625
1 15.8114 28.3783 9.82229
1 15.0636 27.6026 9.77782
1 16.5874 28.4126 10.625
1 17.3811 27.6189 10.625
1 17.3998 28.3801 9.83436
1 16.603 27.5966 9.82225
1 18.1748 28.4126 10.625
1 18.9685 27.6189 10.625
1 18.9777 28.3874 9.84362
1 18.1867 27.6257 9.83666
1 19.7622 28.4126 10.625
1 20.5559 27.6189 10.625
1 20.5534 28.3832 9.8507
1 19.7488 27.6057 9.83978
1 21.3496 28.4126 10.625
1 22.1433 27.6189 10.625
1 22.1381 28.3972 9.8275
1 21.337 27.608 9.82883
1 22.937 28.4126 10.625
1 23.7307 27.6189 10.625
1 23.7304 28.4069 9.8206
1 22.938 27.6092 9.82208
1 24.5244 28.4126 10.625
1 25.3181 27.6189 10.625
1 25.3346 28.3865 9.83332
1 24.5158 27.6141 9.82091
1 26.1118 28.4126 10.625
1 26.9055 27.6189 10.625
1 26.8778 28.3648 9.83974
1 26.1147 27.5958 9.82532
1 27.6992 28.4126 10.625
1 28.4929 27.6189 10.625
1 28.5117 28.3847 9.83511
1 27.6852 27.6234 9.81837
1 29.2866 28.4126 10.625
1 0.08031 27.6189 10.625
1 0.0771935 28.3862 9.83915
1 29.2916 27.5977 9.86894
1 0.874011 28.4126 10.625
1 1.66771 27.6189 10.625
1 1.63966 28.4176 9.84354
1 0.851449 27.6083 9.8078
1 2.46141 28.4126 10.625
1 3.25511 27.6189 10.625
1 3.21854 28.4027 9.82992
1 2.44185 27.6408 9.84125
1 4.04881 28.4126 10.625
1 4.84251 27.6189 10.625
1 4.84251 28.4016 9.83134
1 4.0441 27.6347 9.84051
1 5.63621 28.4126 10.625
1 6.42991 27.6189 10.625
1 6.41157 28.3864 9.82613
1 5.63039 27.6321 9.83766
1 7.22361 28.4126 10.625
1 8.01732 27.6189 10.625
1 8.03456 28.3773 9.82501
1 7.21571 27.6272 9.81791
1 8.81102 28.4126 10.625
1 9.60472 27.6189 10.625
1 9.63072 28.4216 9.82838
1 8.84658 27.5998 9.83346
1 10.3984 28.4126 10.625
1 11.1921 27.6189 10.625
1 11.1961 28.4007 9.8544
1 10.3864 27.6048 9.82869
1 11.9858 28.4126 10.625
1 12.7795 27.6189 10.625
1 12.7639 28.3698 9.82671
1 11.9825 27.6122 9.83488
1 13.5732 28.4126 10.625
1 14.3669 27.6189 10.625
1 14.3151 28.4079 9.79521
1 13.54 27.5881 9.83965
1 15 26.8252 10.625
1 15.7937 26.0315 10.625
1 15.8133 26.811 9.8242
1 15.0425 26.0406 9.78987
1 16.5874 26.8252 10.625
1 17.3811 26.0315 10.625
1 17.4016 26.8091 9.84842
1 16.5877 26.0553 9.82774
1 18.1748 26.8252 10.625
1 18.9685 26.0315 10.625
1 18.9666 26.81 9.85027
1 18.1701 26.0321 9.84217
1 19.7622 26.8252 10.625
1 20.5559 26.0315 10.625
1 20.5645 26.8034 9.81837
1 19.7714 26.0537 9.83364
1 21.3496 26.8252 10.625
1 22.1433 26.0315 10.625
1 22.1448 26.827 9.81936
1 21.3832 26.0299 9.82487
1 22.937 26.8252 10.625
1 23.7307 26.0315 10.625
1 23.7198 26.7903 9.84508
1 22.9442 26.0317 9.81684
1 24.5244 26.8252 10.625
1 25.3181 26.0315 10.625
1 25.3161 26.8497 9.81785
1 24.5455 26.0261 9.83668
1 26.1118 26.8252 10.625
1 26.9055 26.0315 10.625
1 26.8865 26.8245 9.82102
1 26.099 26.0193 9.84142
1 27.6992 26.8252 10.625
1 28.4929 26.0315 10.625
1 28.481 26.835 9.83752
1 27.7022 26.0329 9.83766
1 29.2866 26.8252 10.625
1 0.08031 26.0315 10.625
1 0.0713468 26.8174 9.82559
1 29.2787 26.0381 9.82744
1 0.874011 26.8252 10.625
1 1.66771 26.0315 10.625
1 1.64593 26.7875 9.8198
1 0.871595 26.0218 9.85683
1 2.46141 26.8252 10.625
1 3.25511 26.0315 10.625
1 3.25448 26.8158 9.83114
1 2.48805 26.0141 9.8199
1 4.04881 26.8252 10.625
1 4.84251 26.0315 10.625
1 4.82022 26.8154 9.84061
1 4.04857 26.0096 9.82771
1 5.63621 26.8252 10.625
1 6.42991 26.0315 10.625
1 6.42054 26.8157 9.83087
1 5.61767 26.0365 9.83148
1 7.22361 26.8252 10.625
1 8.01732 26.0315 10.625
1 8.01821 26.8201 9.85835
1 7.21293 26.008 9.82839
1 8.81102 26.8252 10.625
1 9.60472 26.0315 10.625
1 9.61089 26.8198 9.83526
1 8.80864 26.0366 9.82094
1 10.3984 26.8252 10.625
1 11.1921 26.0315 10.625
1 11.2004 26.8123 9.82544
1 10.3913 26.0155 9.84094
1 11.9858 26.8252 10.625
1 12.7795 26.0315 10.625
1 12.734 26.8397 9.84437
1 11.9655 26.0335 9.82879
1 13.5732 26.8252 10.625
1 14.3669 26.0315 10.625
1 14.2903 26.831 9.79753
1 13.5202 26.0504 9.82136
1 15 25.2378 10.625
1 15.7937 24.4441 10.625
1 15.8038 25.2434 9.81142
1 15.0632 24.4514 9.80203
1 16.5874 25.2378 10.625
1 17.3811 24.4441 10.625
1 17.4171 25.2517 9.83888
1 16.6074 24.4411 9.8182
1 18.1748 25.2378 10.625
1 18.9685 24.4441 10.625
1 18.9872 25.2156 9.83977
1 18.1657 24.4426 9.85163
1 19.7622 25.2378 10.625
1 20.5559 24.4441 10.625
1 20.5459 25.2143 9.82078
1 19.7916 24.4314 9.8528
1 21.3496 25.2378 10.625
1 22.1433 24.4441 10.625
1 22.1341 25.2381 9.83041
1 21.3392 24.4619 9.83832
1 22.937 25.2378 10.625
1 23.7307 24.4441 10.625
1 23.7437 25.2201 9.81626
1 22.9369 24.4553 9.84369
1 24.5244 25.2378 10.625
1 25.3181 24.4441 10.625
1 25.3036 25.2279 9.85115
1 24.5092 24.4568 9.83135
1 26.1118 25.2378 10.625
1 26.9055 24.4441 10.625
1 26.8953 25.2307 9.84876
1 26.1093 24.4387 9.86502
1 27.6992 25.2378 10.625
1 28.4929 24.4441 10.625
1 28.5054 25.2147 9.82121
1 27.6897 24.4588 9.81365
1 29.2866 25.2378 10.625
1 0.08031 24.4441 10.625
1 0.0643258 25.2286 9.82517
1 29.2947 24.431 9.81131
1 0.874011 25.2378 10.625
1 1.66771 24.4441 10.625
1 1.67144 25.2287 9.83515
1 0.877759 24.4543 9.83094
1 2.46141 25.2378 10.625
1 3.25511 24.4441 10.625
1 3.271 25.2098 9.84223
1 2.46138 24.4197 9.85447
1 4.04881 25.2378 10.625
1 4.84251 24.4441 10.625
1 4.84041 25.23 9.83865
1 4.06243 24.4544 9.83461
1 5.63621 25.2378 10.625
1 6.42991 24.4441 10.625
1 6.40752 25.2374 9.81408
1 5.66482 24.4217 9.8027
1 7.22361 25.2378 10.625
1 8.01732 24.4441 10.625
1 8.01552 25.2313 9.82668
1 7.1986 24.4469 9.83496
1 8.81102 25.2378 10.625
1 9.60472 24.4441 10.625
1 9.5889 25.2346 9.827
1 8.80349 24.4685 9.83237
1 10.3984 25.2378 10.625
1 11.1921 24.4441 10.625
1 11.186 25.2511 9.81056
1 10.4166 24.4445 9.82761
1 11.9858 25.2378 10.625
1 12.7795 24.4441 10.625
1 12.7738 25.2527 9.83812
1 11.9792 24.4462 9.82721
1 13.5732 25.2378 10.625
1 14.3669 24.4441 10.625
1 14.2762 25.2546 9.7954
1 13.5304 24.4597 9.81026
1 15 23.6504 10.625
1 15.7937 22.8567 10.625
1 15.8244 23.6437 9.84091
1 15.0652 22.8393 9.78475
1 16.5874 23.6504 10.625
1 17.3811 22.8567 10.625
1 17.3852 23.6351 9.83965
1 16.63 22.8578 9.85649
1 18.1748 23.6504 10.625
1 18.9685 22.8567 10.625
1 18.9878 23.6355 9.81675
1 18.185 22.8646 9.8684
1 19.7622 23.6504 10.625
1 20.5559 22.8567 10.625
1 20.585 23.6099 9.84918
1 19.773 22.8544 9.82413
1 21.3496 23.6504 10.625
1 22.1433 22.8567 10.625
1 22.1373 23.6646 9.84477
1 21.3547 22.8432 9.84312
1 22.937 23.6504 10.625
1 23.7307 22.8567 10.625
1 23.741 23.6402 9.83316
1 22.9458 22.8847 9.83433
1 24.5244 23.6504 10.625
1 25.3181 22.8567 10.625
1 25.3208 23.6375 9.84644
1 24.5284 22.8536 9.83484
1 26.1118 23.6504 10.625
1 26.9055 22.8567 10.625
1 26.9196 23.664 9.8479
1 26.1216 22.8735 9.82758
1 27.6992 23.6504 10.625
1 28.4929 22.8567 10.625
1 28.4756 23.6372 9.84938
1 27.6786 22.8653 9.82743
1 29.2866 23.6504 10.625
1 0.08031 22.8567 10.625
1 0.0696475 23.6212 9.86092
1 29.2674 22.8925 9.83566
1 0.874011 23.6504 10.625
1 1.66771 22.8567 10.625
1 1.6547 23.6432 9.83171
1 0.878015 22.8449 9.84824
1 2.46141 23.6504 10.625
1 3.25511 22.8567 10.625
1 3.25465 23.6366 9.84191
1 2.4404 22.8471 9.84865
1 4.04881 23.6504 10.625
1 4.84251 22.8567 10.625
1 4.84166 23.6372 9.83483
1 4.05013 22.8416 9.82221
1 5.63621 23.6504 10.625
1 6.42991 22.8567 10.625
1 6.44481 23.6795 9.80155
1 5.6554 22.8733 9.81434
1 7.22361 23.6504 10.625
1 8.01732 22.8567 10.625
1 7.98483 23.6566 9.84594
1 7.1951 22.8725 9.84381
1 8.81102 23.6504 10.625
1 9.60472 22.8567 10.625
1 9.59021 23.6766 9.83774
1 8.80066 22.8761 9.82876
1 10.3984 23.6504 10.625
1 11.1921 22.8567 10.625
1 11.1862 23.6554 9.8165
1 10.3789 22.8697 9.86042
1 11.9858 23.6504 10.625
1 12.7795 22.8567 10.625
1 12.7508 23.6215 9.83042
1 11.9842 22.871 9.81195
1 13.5732 23.6504 10.625
1 14.3669 22.8567 10.625
1 14.3024 23.6452 9.7971
1 13.5371 22.869 9.80239
1 15 22.063 10.625
1 15.7937 21.2693 10.625
1 15.8538 22.0706 9.8299
1 15.0867 21.2426 9.78557
1 16.5874 22.063 10.625
1 17.3811 21.2693 10.625
1 17.4096 22.0613 9.8459
1 16.621 21.2623 9.82402
1 18.1748 22.063 10.625
1 18.9685 21.2693 10.625
1 18.9871 22.0414 9.83097
1 18.1701 21.2632 9.8352
1 19.7622 22.063 10.625
1 20.5559 21.2693 10.625
1 20.5747 22.0973 9.83098
1 19.7809 21.2741 9.83487
1 21.3496 22.063 10.625
1 22.1433 21.2693 10.625
1 22.1695 22.068 9.84637
1 21.3428 21.2998 9.82352
1 22.937 22.063 10.625
1 23.7307 21.2693 10.625
1 23.7349 22.0593 9.81829
1 22.9461 21.2748 9.84385
1 24.5244 22.063 10.625
1 25.3181 21.2693 10.625
1 25.3261 22.0516 9.82483
1 24.5235 21.2873 9.80656
1 26.1118 22.063 10.625
1 26.9055 21.2693 10.625
1 26.8903 22.0564 9.79653
1 26.1157 21.2696 9.86389
1 27.6992 22.063 10.625
1 28.4929 21.2693 10.625
1 28.5119 22.0622 9.81457
1 27.6973 21.2675 9.83759
1 29.2866 22.063 10.625
1 0.08031 21.2693 10.625
1 0.0574105 22.0862 9.83513
1 29.2961 21.2551 9.85537
1 0.874011 22.063 10.625
1 1.66771 21.2693 10.625
1 1.65039 22.0561 9.83866
1 0.860769 21.2767 9.80643
1 2.46141 22.063 10.625
1 3.25511 21.2693 10.625
1 3.24881 22.0836 9.83906
1 2.46186 21.3005 9.82914
1 4.04881 22.063 10.625
1 4.84251 21.2693 10.625
1 4.87618 22.0732 9.82731
1 4.04475 21.2887 9.84552
1 5.63621 22.063 10.625
1 6.42991 21.2693 10.625
1 6.45332 22.0277 9.81834
1 5.64378 21.2564 9.82725
1 7.22361 22.063 10.625
1 8.01732 21.2693 10.625
1 8.02043 22.0874 9.85853
1 7.2055 21.2357 9.83391
1 8.81102 22.063 10.625
1 9.60472 21.2693 10.625
1 9.60943 22.061 9.84052
1 8.78409 21.27 9.81119
1 10.3984 22.063 10.625
1 11.1921 21.2693 10.625
1 11.1891 22.0791 9.84726
1 10.3951 21.271 9.82675
1 11.9858 22.063 10.625
1 12.7795 21.2693 10.625
1 12.763 22.071 9.82677
1 11.9932 21.2941 9.83289
1 13.5732 22.063 10.625
1 14.3669 21.2693 10.625
1 14.2975 22.0392 9.80673
1 13.5302 21.274 9.81926
1 15 20.4756 10.625
1 15.7937 19.6819 10.625
1 15.8432 20.4789 9.83313
1 15.0631 19.6857 9.79919
1 16.5874 20.4756 10.625
1 17.3811 19.6819 10.625
1 17.4209 20.4654 9.82778
1 16.6281 19.6757 9.80557
1 18.1748 20.4756 10.625
1 18.9685 19.6819 10.625
1 18.9873 20.4756 9.82421
1 18.2007 19.6908 9.82261
1 19.7622 20.4756 10.625
1 20.5559 19.6819 10.625
1 20.5727 20.4699 9.83107
1 19.7581 19.6938 9.84735
1 21.3496 20.4756 10.625
1 22.1433 19.6819 10.625
1 22.1495 20.4631 9.84482
1 21.3634 19.6586 9.81782
1 22.937 20.4756 10.625
1 23.7307 19.6819 10.625
1 23.7352 20.4775 9.8252
1 22.9314 19.6925 9.84905
1 24.5244 20.4756 10.625
1 25.3181 19.6819 10.625
1 25.3276 20.4813 9.84344
1 24.5482 19.686 9.86164
1 26.1118 20.4756 10.625
1 26.9055 19.6819 10.625
1 26.8965 20.4526 9.847
1 26.0862 19.6858 9.82877
1 27.6992 20.4756 10.625
1 28.4929 19.6819 10.625
1 28.493 20.4597 9.81713
1 27.7027 19.6743 9.85281
1 29.2866 20.4756 10.625
1 0.08031 19.6819 10.625
1 0.0728922 20.472 9.83798
1 29.2887 19.669 9.82815
1 0.874011 20.4756 10.625
1 1.66771 19.6819 10.625
1 1.6696 20.4858 9.8252
1 0.898138 19.6946 9.83542
1 2.46141 20.4756 10.625
1 3.25511 19.6819 10.625
1 3.23517 20.4854 9.83716
1 2.45667 19.6645 9.83752
1 4.04881 20.4756 10.625
1 4.84251 19.6819 10.625
1 4.83163 20.484 9.8624
1 4.0509 19.6641 9.82637
1 5.63621 20.4756 10.625
1 6.42991 19.6819 10.625
1 6.3977 20.4553 9.82747
1 5.6065 19.6916 9.81783
1 7.22361 20.4756 10.625
1 8.01732 19.6819 10.625
1 8.0138 20.467 9.82303
1 7.22526 19.6895 9.82003
1 8.81102 20.4756 10.625
1 9.60472 19.6819 10.625
1 9.59546 20.4891 9.86332
1 8.80094 19.7056 9.81934
1 10.3984 20.4756 10.625
1 11.1921 19.6819 10.625
1 11.2017 20.4898 9.80892
1 10.4045 19.7023 9.83772
1 11.9858 20.4756 10.625
1 12.7795 19.6819 10.625
1 12.767 20.5018 9.87764
1 11.9728 19.6957 9.82919
1 13.5732 20.4756 10.625
1 14.3669 19.6819 10.625
1 14.2935 20.4813 9.80339
1 13.5236 19.6935 9.83538
1 15 18.8882 10.625
1 15.7937 18.0945 10.625
1 15.8306 18.8739 9.83417
1 15.0692 18.0939 9.80894
1 16.5874 18.8882 10.625
1 17.3811 18.0945 10.625
1 17.3778 18.8846 9.8212
1 16.5996 18.0723 9.82206
1 18.1748 18.8882 10.625
1 18.9685 18.0945 10.625
1 18.9622 18.8812 9.84199
1 18.1895 18.0804 9.81118
1 19.7622 18.8882 10.625
1 20.5559 18.0945 10.625
1 20.5435 18.8792 9.82894
1 19.7919 18.106 9.82734
1 21.3496 18.8882 10.625
1 22.1433 18.0945 10.625
1 22.1401 18.9045 9.83465
1 21.3468 18.0821 9.82003
1 22.937 18.8882 10.625
1 23.7307 18.0945 10.625
1 23.7303 18.8961 9.83253
1 22.9342 18.106 9.84957
1 24.5244 18.8882 10.625
1 25.3181 18.0945 10.625
1 25.3319 18.8831 9.84316
1 24.5475 18.1114 9.82252
1 26.1118 18.8882 10.625
1 26.9055 18.0945 10.625
1 26.8972 18.8855 9.86018
1 26.1131 18.0962 9.84219
1 27.6992 18.8882 10.625
1 28.4929 18.0945 10.625
1 28.4959 18.8873 9.82762
1 27.7069 18.095 9.84663
1 29.2866 18.8882 10.625
1 0.08031 18.0945 10.625
1 0.106062 18.8963 9.81718
1 29.2825 18.0916 9.81738
1 0.874011 18.8882 10.625
1 1.66771 18.0945 10.625
1 1.66293 18.8704 9.84777
1 0.885174 18.0861 9.81345
1 2.46141 18.8882 10.625
1 3.25511 18.0945 10.625
1 3.25118 18.8949 9.82656
1 2.46086 18.0744 9.81714
1 4.04881 18.8882 10.625
1 4.84251 18.0945 10.625
1 4.84993 18.8709 9.82156
1 4.04907 18.1162 9.83365
1 5.63621 18.8882 10.625
1 6.42991 18.0945 10.625
1 6.44627 18.8992 9.8262
1 5.65916 18.0819 9.83095
1 7.22361 18.8882 10.625
1 8.01732 18.0945 10.625
1 8.04078 18.9014 9.81675
1 7.2198 18.1385 9.81499
1 8.81102 18.8882 10.625
1 9.60472 18.0945 10.625
1 9.61126 18.8867 9.83705
1 8.81657 18.1006 9.84432
1 10.3984 18.8882 10.625
1 11.1921 18.0945 10.625
1 11.1925 18.9018 9.83426
1 10.3933 18.1029 9.83714
1 11.9858 18.8882 10.625
1 12.7795 18.0945 10.625
1 12.7487 18.877 9.82862
1 11.9553 18.1088 9.8311
1 13.5732 18.8882 10.625
1 14.3669 18.0945 10.625
1 14.3045 18.8866 9.81074
1 13.5244 18.0761 9.82833
1 15 17.3008 10.625
1 15.7937 16.5071 10.625
1 15.8253 17.2907 9.84681
1 15.0549 16.5103 9.79925
1 16.5874 17.3008 10.625
1 17.3811 16.5071 10.625
1 17.3661 17.2958 9.84779
1 16.62 16.5062 9.82731
1 18.1748 17.3008 10.625
1 18.9685 16.5071 10.625
1 19.0019 17.2962 9.83833
1 18.1698 16.5124 9.82606
1 19.7622 17.3008 10.625
1 20.5559 16.5071 10.625
1 20.5466 17.2825 9.8336
1 19.7611 16.4753 9.84183
1 21.3496 17.3008 10.625
1 22.1433 16.5071 10.625
1 22.1494 17.3093 9.83602
1 21.3683 16.5129 9.83863
1 22.937 17.3008 10.625
1 23.7307 16.5071 10.625
1 23.7598 17.3036 9.84098
1 22.9452 16.5006 9.85921
1 24.5244 17.3008 10.625
1 25.3181 16.5071 10.625
1 25.3502 17.3161 9.8439
1 24.5232 16.5047 9.83691
1 26.1118 17.3008 10.625
1 26.9055 16.5071 10.625
1 26.9034 17.3033 9.83527
1 26.1068 16.504 9.82601
1 27.6992 17.3008 10.625
1 28.4929 16.5071 10.625
1 28.4817 17.321 9.84111
1 27.698 16.5301 9.8507
1 29.2866 17.3008 10.625
1 0.08031 16.5071 10.625
1 0.0709729 17.3045 9.81978
1 29.2833 16.5036 9.81331
1 0.874011 17.3008 10.625
1 1.66771 16.5071 10.625
1 1.65295 17.2989 9.81397
1 0.868597 16.4807 9.82401
1 2.46141 17.3008 10.625
1 3.25511 16.5071 10.625
1 3.28581 17.3116 9.84764
1 2.47891 16.5293 9.82612
1 4.04881 17.3008 10.625
1 4.84251 16.5071 10.625
1 4.87266 17.2995 9.85692
1 4.06564 16.5156 9.81914
1 5.63621 17.3008 10.625
1 6.42991 16.5071 10.625
1 6.43911 17.307 9.84548
1 5.64214 16.4888 9.83028
1 7.22361 17.3008 10.625
1 8.01732 16.5071 10.625
1 8.02214 17.2962 9.83907
1 7.26351 16.5257 9.83441
1 8.81102 17.3008 10.625
1 9.60472 16.5071 10.625
1 9.61665 17.314 9.83162
1 8.79728 16.5203 9.85509
1 10.3984 17.3008 10.625
1 11.1921 16.5071 10.625
1 11.1505 17.2863 9.82926
1 10.3947 16.4998 9.82391
1 11.9858 17.3008 10.625
1 12.7795 16.5071 10.625
1 12.7854 17.263 9.81286
1 11.9505 16.5062 9.83058
1 13.5732 17.3008 10.625
1 14.3669 16.5071 10.625
1 14.3171 17.3024 9.82176
1 13.5601 16.4993 9.81786
1 15 15.7134 10.625
1 15.7937 14.9197 10.625
1 15.8148 15.7094 9.84719
1 15.0748 14.9296 9.81314
1 16.5874 15.7134 10.625
1 17.3811 14.9197 10.625
1 17.3934 15.7164 9.81524
1 16.6067 14.942 9.84139
1 18.1748 15.7134 10.625
1 18.9685 14.9197 10.625
1 18.9556 15.7062 9.81822
1 18.1898 14.9356 9.85213
1 19.7622 15.7134 10.625
1 20.5559 14.9197 10.625
1 20.5674 15.7092 9.83778
1 19.7505 14.9165 9.84124
1 21.3496 15.7134 10.625
1 22.1433 14.9197 10.625
1 22.1391 15.71 9.86271
1 21.3595 14.9151 9.84083
1 22.937 15.7134 10.625
1 23.7307 14.9197 10.625
1 23.7378 15.7177 9.82472
1 22.945 14.9179 9.84139
1 24.5244 15.7134 10.625
1 25.3181 14.9197 10.625
1 25.3125 15.7364 9.82973
1 24.513 14.9123 9.8578
1 26.1118 15.7134 10.625
1 26.9055 14.9197 10.625
1 26.9125 15.7351 9.83772
1 26.1173 14.9015 9.86798
1 27.6992 15.7134 10.625
1 28.4929 14.9197 10.625
1 28.4857 15.7002 9.84836
1 27.7012 14.9299 9.84719
1 29.2866 15.7134 10.625
1 0.08031 14.9197 10.625
1 0.0792992 15.7121 9.85592
1 29.2871 14.919 9.86524
1 0.874011 15.7134 10.625
1 1.66771 14.9197 10.625
1 1.66491 15.7054 9.82882
1 0.857456 14.8922 9.84008
1 2.46141 15.7134 10.625
1 3.25511 14.9197 10.625
1 3.24862 15.7003 9.84997
1 2.46613 14.9153 9.84736
1 4.04881 15.7134 10.625
1 4.84251 14.9197 10.625
1 4.86873 15.7363 9.83867
1 4.06255 14.9423 9.82278
1 5.63621 15.7134 10.625
1 6.42991 14.9197 10.625
1 6.44341 15.7145 9.82186
1 5.62872 14.921 9.826
1 7.22361 15.7134 10.625
1 8.01732 14.9197 10.625
1 7.98849 15.6918 9.8434
1 7.24176 14.9243 9.83609
1 8.81102 15.7134 10.625
1 9.60472 14.9197 10.625
1 9.59866 15.7023 9.84614
1 8.79585 14.919 9.84937
1 10.3984 15.7134 10.625
1 11.1921 14.9197 10.625
1 11.1879 15.7367 9.82936
1 10.3953 14.9035 9.83032
1 11.9858 15.7134 10.625
1 12.7795 14.9197 10.625
1 12.7514 15.7191 9.81341
1 11.9798 14.9349 9.85312
1 13.5732 15.7134 10.625
1 14.3669 14.9197 10.625
1 14.3088 15.6953 9.8032
1 13.5493 14.9142 9.82083
1 15 14.126 10.625
1 15.7937 13.3323 10.625
1 15.8479 14.1324 9.85098
1 15.0576 13.3243 9.78355
1 16.5874 14.126 10.625
1 17.3811 13.3323 10.625
1 17.3903 14.1371 9.82295
1 16.5987 13.3278 9.81051
1 18.1748 14.126 10.625
1 18.9685 13.3323 10.625
1 18.9898 14.1267 9.84424
1 18.1791 13.3286 9.8305
1 19.7622 14.126 10.625
1 20.5559 13.3323 10.625
1 20.5659 14.1259 9.82722
1 19.7668 13.3489 9.83561
1 21.3496 14.126 10.625
1 22.1433 13.3323 10.625
1 22.1495 14.1387 9.82455
1 21.3382 13.3313 9.81008
1 22.937 14.126 10.625
1 23.7307 13.3323 10.625
1 23.727 14.0963 9.81452
1 22.9132 13.3522 9.83475
1 24.5244 14.126 10.625
1 25.3181 13.3323 10.625
1 25.3093 14.1213 9.84508
1 24.54 13.3259 9.8673
1 26.1118 14.126 10.625
1 26.9055 13.3323 10.625
1 26.908 14.1167 9.82183
1 26.0868 13.3424 9.8362
1 27.6992 14.126 10.625
1 28.4929 13.3323 10.625
1 28.4864 14.1307 9.81651
1 27.6864 13.3497 9.79369
1 29.2866 14.126 10.625
1 0.08031 13.3323 10.625
1 0.0763379 14.1164 9.82755
1 29.29 13.3486 9.82106
1 0.874011 14.126 10.625
1 1.66771 13.3323 10.625
1 1.67737 14.149 9.81004
1 0.882181 13.365 9.82068
1 2.46141 14.126 10.625
1 3.25511 13.3323 10.625
1 3.24102 14.1441 9.80192
1 2.45344 13.3448 9.85107
1 4.04881 14.126 10.625
1 4.84251 13.3323 10.625
1 4.8403 14.1355 9.84147
1 4.06659 13.3602 9.82331
1 5.63621 14.126 10.625
1 6.42991 13.3323 10.625
1 6.41804 14.126 9.83494
1 5.63329 13.3303 9.83923
1 7.22361 14.126 10.625
1 8.01732 13.3323 10.625
1 7.99753 14.1357 9.85568
1 7.23311 13.3257 9.85068
1 8.81102 14.126 10.625
1 9.60472 13.3323 10.625
1 9.60255 14.1529 9.84716
1 8.80054 13.3559 9.83448
1 10.3984 14.126 10.625
1 11.1921 13.3323 10.625
1 11.1736 14.1234 9.82398
1 10.3974 13.3441 9.81193
1 11.9858 14.126 10.625
1 12.7795 13.3323 10.625
1 12.749 14.1321 9.82289
1 11.9644 13.3389 9.83679
1 13.5732 14.126 10.625
1 14.3669 13.3323 10.625
1 14.2935 14.1078 9.80927
1 13.5289 13.3118 9.81126
1 15 12.5386 10.625
1 15.7937 11.7449 10.625
1 15.8143 12.5375 9.81763
1 15.083 11.7384 9.79554
1 16.5874 12.5386 10.625
1 17.3811 11.7449 10.625
1 17.3843 12.5653 9.83549
1 16.6147 11.7514 9.84074
1 18.1748 12.5386 10.625
1 18.9685 11.7449 10.625
1 18.9877 12.5328 9.81614
1 18.1792 11.7373 9.83939
1 19.7622 12.5386 10.625
1 20.5559 11.7449 10.625
1 20.5834 12.5454 9.83225
1 19.7753 11.7348 9.83024
1 21.3496 12.5386 10.625
1 22.1433 11.7449 10.625
1 22.129 12.5475 9.85005
1 21.3771 11.7491 9.82583
1 22.937 12.5386 10.625
1 23.7307 11.7449 10.625
1 23.7323 12.5459 9.83855
1 22.9234 11.7366 9.85326
1 24.5244 12.5386 10.625
1 25.3181 11.7449 10.625
1 25.309 12.5528 9.84183
1 24.5078 11.7401 9.83892
1 26.1118 12.5386 10.625
1 26.9055 11.7449 10.625
1 26.9014 12.5349 9.83251
1 26.0922 11.7283 9.82903
1 27.6992 12.5386 10.625
1 28.4929 11.7449 10.625
1 28.4961 12.5277 9.84882
1 27.6912 11.7431 9.83185
1 29.2866 12.5386 10.625
1 0.08031 11.7449 10.625
1 0.0914567 12.555 9.82177
1 29.2809 11.7366 9.83885
1 0.874011 12.5386 10.625
1 1.66771 11.7449 10.625
1 1.63169 12.5636 9.80839
1 0.852977 11.7433 9.81834
1 2.46141 12.5386 10.625
1 3.25511 11.7449 10.625
1 3.24172 12.557 9.84815
1 2.45446 11.7326 9.8552
1 4.04881 12.5386 10.625
1 4.84251 11.7449 10.625
1 4.8424 12.5395 9.83478
1 4.0332 11.7422 9.85352
1 5.63621 12.5386 10.625
1 6.42991 11.7449 10.625
1 6.40403 12.5265 9.81445
1 5.62251 11.7486 9.82395
1 7.22361 12.5386 10.625
1 8.01732 11.7449 10.625
1 8.01814 12.5444 9.82425
1 7.21986 11.7261 9.83796
1 8.81102 12.5386 10.625
1 9.60472 11.7449 10.625
1 9.61644 12.5505 9.83979
1 8.79271 11.7802 9.83813
1 10.3984 12.5386 10.625
1 11.1921 11.7449 10.625
1 11.1964 12.5483 9.8345
1 10.3893 11.7567 9.85438
1 11.9858 12.5386 10.625
1 12.7795 11.7449 10.625
1 12.7576 12.5178 9.83429
1 11.9726 11.7323 9.82831
1 13.5732 12.5386 10.625
1 14.3669 11.7449 10.625
1 14.3157 12.5405 9.78493
1 13.5325 11.7548 9.8271
1 15 10.9512 10.625
1 15.7937 10.1575 10.625
1 15.839 10.9605 9.79132
1 15.0526 10.1666 9.80702
1 16.5874 10.9512 10.625
1 17.3811 10.1575 10.625
1 17.4099 10.9365 9.8351
1 16.5769 10.1583 9.81488
1 18.1748 10.9512 10.625
1 18.9685 10.1575 10.625
1 18.9904 10.9439 9.8308
1 18.1876 10.1377 9.83249
1 19.7622 10.9512 10.625
1 20.5559 10.1575 10.625
1 20.5521 10.9496 9.84344
1 19.7698 10.157 9.80701
1 21.3496 10.9512 10.625
1 22.1433 10.1575 10.625
1 22.1329 10.9595 9.81602
1 21.3444 10.1453 9.82555
1 22.937 10.9512 10.625
1 23.7307 10.1575 10.625
1 23.7218 10.9255 9.84505
1 22.9326 10.1556 9.8049
1 24.5244 10.9512 10.625
1 25.3181 10.1575 10.625
1 25.2959 10.9221 9.8325
1 24.5454 10.1417 9.84636
1 26.1118 10.9512 10.625
1 26.9055 10.1575 10.625
1 26.9023 10.94 9.81436
1 26.1066 10.1544 9.81003
1 27.6992 10.9512 10.625
1 28.4929 10.1575 10.625
1 28.5028 10.9554 9.8537
1 27.6928 10.1657 9.83201
1 29.2866 10.9512 10.625
1 0.08031 10.1575 10.625
1 0.0664475 10.9477 9.82433
1 29.2946 10.1707 9.84176
1 0.874011 10.9512 10.625
1 1.66771 10.1575 10.625
1 1.64561 10.9452 9.81511
1 0.864825 10.1613 9.86173
1 2.46141 10.9512 10.625
1 3.25511 10.1575 10.625
1 3.22933 10.9282 9.83973
1 2.46305 10.1856 9.8163
1 4.04881 10.9512 10.625
1 4.84251 10.1575 10.625
1 4.84262 10.9714 9.83854
1 4.04741 10.166 9.81629
1 5.63621 10.9512 10.625
1 6.42991 10.1575 10.625
1 6.42796 10.9218 9.83358
1 5.62945 10.1621 9.82403
1 7.22361 10.9512 10.625
1 8.01732 10.1575 10.625
1 8.03642 10.9487 9.84579
1 7.23731 10.1514 9.80405
1 8.81102 10.9512 10.625
1 9.60472 10.1575 10.625
1 9.59423 10.9374 9.83877
1 8.82419 10.1376 9.83353
1 10.3984 10.9512 10.625
1 11.1921 10.1575 10.625
1 11.1814 10.9612 9.85572
1 10.3886 10.1722 9.83508
1 11.9858 10.9512 10.625
1 12.7795 10.1575 10.625
1 12.765 10.9373 9.83204
1 11.968 10.1497 9.82334
1 13.5732 10.9512 10.625
1 14.3669 10.1575 10.625
1 14.3021 10.9409 9.78483
1 13.5532 10.1352 9.80606
1 15 9.36379 10.625
1 15.7937 8.57009 10.625
1 15.8223 9.37411 9.82264
1 15.0603 8.57037 9.80419
1 16.5874 9.36379 10.625
1 17.3811 8.57009 10.625
1 17.3814 9.36715 9.83872
1 16.6138 8.56945 9.82181
1 18.1748 9.36379 10.625
1 18.9685 8.57009 10.625
1 18.9609 9.37697 9.8218
1 18.1583 8.54066 9.81143
1 19.7622 9.36379 10.625
1 20.5559 8.57009 10.625
1 20.5819 9.36246 9.82695
1 19.7627 8.55327 9.83312
1 21.3496 9.36379 10.625
1 22.1433 8.57009 10.625
1 22.1498 9.34599 9.81571
1 21.3399 8.58279 9.83895
1 22.937 9.36379 10.625
1 23.7307 8.57009 10.625
1 23.7485 9.35291 9.83625
1 22.9642 8.56484 9.82927
1 24.5244 9.36379 10.625
1 25.3181 8.57009 10.625
1 25.3211 9.3702 9.8389
1 24.5412 8.54014 9.84906
1 26.1118 9.36379 10.625
1 26.9055 8.57009 10.625
1 26.9253 9.34415 9.83737
1 26.09 8.55469 9.84152
1 27.6992 9.36379 10.625
1 28.4929 8.57009 10.625
1 28.5127 9.36458 9.83727
1 27.7183 8.57321 9.83087
1 29.2866 9.36379 10.625
1 0.08031 8.57009 10.625
1 0.064903 9.37557 9.81991
1 29.2554 8.55461 9.83026
1 0.874011 9.36379 10.625
1 1.66771 8.57009 10.625
1 1.69432 9.38526 9.85292
1 0.888307 8.5815 9.8095
1 2.46141 9.36379 10.625
1 3.25511 8.57009 10.625
1 3.24189 9.35471 9.8329
1 2.4584 8.55486 9.82477
1 4.04881 9.36379 10.625
1 4.84251 8.57009 10.625
1 4.82583 9.38646 9.8492
1 4.034 8.58245 9.83241
1 5.63621 9.36379 10.625
1 6.42991 8.57009 10.625
1 6.4682 9.3731 9.83186
1 5.64716 8.60053 9.83045
1 7.22361 9.36379 10.625
1 8.01732 8.57009 10.625
1 8.0208 9.36299 9.84546
1 7.23302 8.57991 9.8599
1 8.81102 9.36379 10.625
1 9.60472 8.57009 10.625
1 9.60068 9.32516 9.85601
1 8.79784 8.59003 9.83708
1 10.3984 9.36379 10.625
1 11.1921 8.57009 10.625
1 11.2053 9.3623 9.83651
1 10.4061 8.53977 9.85523
1 11.9858 9.36379 10.625
1 12.7795 8.57009 10.625
1 12.759 9.37466 9.8138
1 11.9735 8.56244 9.84394
1 13.5732 9.36379 10.625
1 14.3669 8.57009 10.625
1 14.3068 9.37652 9.8038
1 13.5438 8.60571 9.8109
1 15 7.77639 10.625
1 15.7937 6.98268 10.625
1 15.8242 7.78866 9.83113
1 15.0658 6.97952 9.79252
1 16.5874 7.77639 10.625
1 17.3811 6.98268 10.625
1 17.3649 7.76937 9.82635
1 16.5929 6.94681 9.84624
1 18.1748 7.77639 10.625
1 18.9685 6.98268 10.625
1 18.9745 7.78541 9.80928
1 18.1812 6.98666 9.8311
1 19.7622 7.77639 10.625
1 20.5559 6.98268 10.625
1 20.5561 7.80165 9.82786
1 19.769 6.9845 9.82022
1 21.3496 7.77639 10.625
1 22.1433 6.98268 10.625
1 22.143 7.76576 9.83207
1 21.3298 6.97598 9.8446
1 22.937 7.77639 10.625
1 23.7307 6.98268 10.625
1 23.7441 7.77899 9.82164
1 22.9715 6.968 9.82879
1 24.5244 7.77639 10.625
1 25.3181 6.98268 10.625
1 25.3209 7.77245 9.85009
1 24.5381 6.97684 9.83656
1 26.1118 7.77639 10.625
1 26.9055 6.98268 10.625
1 26.9011 7.78301 9.81132
1 26.1186 6.97941 9.84318
1 27.6992 7.77639 10.625
1 28.4929 6.98268 10.625
1 28.4808 7.77427 9.82984
1 27.6907 7.0012 9.81665
1 29.2866 7.77639 10.625
1 0.08031 6.98268 10.625
1 0.0736482 7.80824 9.82788
1 29.3063 6.9894 9.8304
1 0.874011 7.77639 10.625
1 1.66771 6.98268 10.625
1 1.64945 7.7716 9.81918
1 0.842444 6.99055 9.8114
1 2.46141 7.77639 10.625
1 3.25511 6.98268 10.625
1 3.25844 7.77372 9.8353
1 2.45283 6.98324 9.85109
1 4.04881 7.77639 10.625
1 4.84251 6.98268 10.625
1 4.81791 7.78675 9.81599
1 4.02863 7.00756 9.82113
1 5.63621 7.77639 10.625
1 6.42991 6.98268 10.625
1 6.43857 7.7852 9.84911
1 5.62809 7.00392 9.8283
1 7.22361 7.77639 10.625
1 8.01732 6.98268 10.625
1 8.02693 7.77442 9.84721
1 7.21191 6.99291 9.83264
1 8.81102 7.77639 10.625
1 9.60472 6.98268 10.625
1 9.58708 7.78309 9.81673
1 8.82097 6.9866 9.83251
1 10.3984 7.77639 10.625
1 11.1921 6.98268 10.625
1 11.1827 7.74482 9.83914
1 10.4068 6.99907 9.83134
1 11.9858 7.77639 10.625
1 12.7795 6.98268 10.625
1 12.7526 7.78346 9.84287
1 11.9948 6.99025 9.84276
1 13.5732 7.77639 10.625
1 14.3669 6.98268 10.625
1 14.2767 7.78404 9.80487
1 13.5464 6.99516 9.83528
1 15 6.18898 10.625
1 15.7937 5.39528 10.625
1 15.8111 6.19097 9.83868
1 15.0411 5.38301 9.78107
1 16.5874 6.18898 10.625
1 17.3811 5.39528 10.625
1 17.3899 6.19174 9.83591
1 16.6211 5.4045 9.82252
1 18.1748 6.18898 10.625
1 18.9685 5.39528 10.625
1 18.9802 6.18035 9.81787
1 18.1976 5.3731 9.83124
1 19.7622 6.18898 10.625
1 20.5559 5.39528 10.625
1 20.5552 6.20903 9.83004
1 19.7781 5.41878 9.83267
1 21.3496 6.18898 10.625
1 22.1433 5.39528 10.625
1 22.118 6.20417 9.83212
1 21.3445 5.40474 9.84962
1 22.937 6.18898 10.625
1 23.7307 5.39528 10.625
1 23.7284 6.18965 9.81417
1 22.9375 5.3898 9.83436
1 24.5244 6.18898 10.625
1 25.3181 5.39528 10.625
1 25.3331 6.20603 9.83453
1 24.5292 5.42045 9.82185
1 26.1118 6.18898 10.625
1 26.9055 5.39528 10.625
1 26.8876 6.19535 9.829
1 26.101 5.40575 9.84707
1 27.6992 6.18898 10.625
1 28.4929 5.39528 10.625
1 28.4997 6.18648 9.82257
1 27.6835 5.40413 9.81796
1 29.2866 6.18898 10.625
1 0.08031 5.39528 10.625
1 0.08229 6.19344 9.82264
1 29.2853 5.41192 9.83032
1 0.874011 6.18898 10.625
1 1.66771 5.39528 10.625
1 1.64701 6.1923 9.81903