9376
Atoms. Timestep: 4000000
1 30 3.55271e-15 10.7635
1 0.793701 29.2063 10.7635
1 0.832303 29.9538 9.90169
1 0.0816796 29.2038 9.91803
1 1.5874 3.55271e-15 10.7635
1 2.3811 29.2063 10.7635
1 2.41778 29.9361 9.94979
1 1.58899 29.2301 9.96967
1 3.1748 3.55271e-15 10.7635
1 3.9685 29.2063 10.7635
1 3.96763 29.9147 9.94072
1 3.17835 29.1552 9.97816
1 4.7622 3.55271e-15 10.7635
1 5.5559 29.2063 10.7635
1 5.52889 29.9449 9.92737
1 4.7846 29.1888 9.96829
1 6.3496 3.55271e-15 10.7635
1 7.1433 29.2063 10.7635
1 7.13669 29.9444 9.94915
1 6.35352 29.1852 9.97424
1 7.93701 3.55271e-15 10.7635
1 8.73071 29.2063 10.7635
1 8.72913 29.9297 9.93102
1 7.91816 29.1539 9.97641
1 9.52441 3.55271e-15 10.7635
1 10.3181 29.2063 10.7635
1 10.3272 29.9151 9.93098
1 9.52942 29.1839 9.95602
1 11.1118 3.55271e-15 10.7635
1 11.9055 29.2063 10.7635
1 11.9017 29.9466 9.94122
1 11.1338 29.1992 9.96711
1 12.6992 3.55271e-15 10.7635
1 13.4929 29.2063 10.7635
1 13.4887 29.9088 9.92762
1 12.6989 29.1944 9.95094
1 14.2866 3.55271e-15 10.7635
1 15.0803 29.2063 10.7635
1 15.1045 29.9307 9.95293
1 14.2723 29.1914 9.96201
1 15.874 3.55271e-15 10.7635
1 16.6677 29.2063 10.7635
1 16.6888 29.9061 9.92166
1 15.8749 29.1691 9.96622
1 17.4614 3.55271e-15 10.7635
1 18.2551 29.2063 10.7635
1 18.2431 29.9232 9.92897
1 17.478 29.1486 9.9628
1 19.0488 3.55271e-15 10.7635
1 19.8425 29.2063 10.7635
1 19.8562 29.9373 9.94403
1 19.0501 29.1611 9.97155
1 20.6362 3.55271e-15 10.7635
1 21.4299 29.2063 10.7635
1 21.4259 29.9432 9.92533
1 20.6617 29.1672 9.97864
1 22.2236 3.55271e-15 10.7635
1 23.0173 29.2063 10.7635
1 23.0163 29.9016 9.95609
1 22.2129 29.1631 9.95826
1 23.811 3.55271e-15 10.7635
1 24.6047 29.2063 10.7635
1 24.6124 29.9238 9.93709
1 23.8332 29.1718 9.95743
1 25.3984 3.55271e-15 10.7635
1 26.1921 29.2063 10.7635
1 26.1715 29.9493 9.94349
1 25.3956 29.1734 9.96036
1 26.9858 3.55271e-15 10.7635
1 27.7795 29.2063 10.7635
1 27.7668 29.904 9.92269
1 26.9378 29.1684 9.96705
1 28.5732 3.55271e-15 10.7635
1 29.3669 29.2063 10.7635
1 29.3029 29.9479 9.89166
1 28.5248 29.1648 9.95411
1 30 28.4126 10.7635
1 0.793701 27.6189 10.7635
1 0.838169 28.4244 9.94583
1 0.0845666 27.6058 9.91943
1 1.5874 28.4126 10.7635
1 2.3811 27.6189 10.7635
1 2.41905 28.3937 9.96964
1 1.58667 27.6151 9.97067
1 3.1748 28.4126 10.7635
1 3.9685 27.6189 10.7635
1 3.97128 28.376 9.97938
1 3.19128 27.6143 9.97678
1 4.7622 28.4126 10.7635
1 5.5559 27.6189 10.7635
1 5.55735 28.4046 9.96965
1 4.75051 27.5888 9.96141
1 6.3496 28.4126 10.7635
1 7.1433 27.6189 10.7635
1 7.11794 28.3849 9.96618
1 6.33904 27.6199 9.93721
1 7.93701 28.4126 10.7635
1 8.73071 27.6189 10.7635
1 8.69226 28.4079 9.96698
1 7.93963 27.5987 9.96621
1 9.52441 28.4126 10.7635
1 10.3181 27.6189 10.7635
1 10.3368 28.4098 9.94576
1 9.53266 27.592 9.95714
1 11.1118 28.4126 10.7635
1 11.9055 27.6189 10.7635
1 11.9034 28.3775 9.97064
1 11.1032 27.604 9.98086
1 12.6992 28.4126 10.7635
1 13.4929 27.6189 10.7635
1 13.49 28.4206 9.9454
1 12.6985 27.5716 9.97556
1 14.2866 28.4126 10.7635
1 15.0803 27.6189 10.7635
1 15.083 28.3826 9.9862
1 14.3035 27.6024 9.94709
1 15.874 28.4126 10.7635
1 16.6677 27.6189 10.7635
1 16.656 28.3946 9.98676
1 15.8875 27.6192 9.96635
1 17.4614 28.4126 10.7635
1 18.2551 27.6189 10.7635
1 18.243 28.3917 9.96802
1 17.4476 27.5857 9.95976
1 19.0488 28.4126 10.7635
1 19.8425 27.6189 10.7635
1 19.8302 28.4005 9.94727
1 19.0515 27.5898 9.96058
1 20.6362 28.4126 10.7635
1 21.4299 27.6189 10.7635
1 21.4244 28.3671 9.959
1 20.6317 27.5747 9.9586
1 22.2236 28.4126 10.7635
1 23.0173 27.6189 10.7635
1 23.0373 28.3983 9.96612
1 22.2378 27.6054 9.96521
1 23.811 28.4126 10.7635
1 24.6047 27.6189 10.7635
1 24.6311 28.3962 9.98836
1 23.8201 27.5949 9.96325
1 25.3984 28.4126 10.7635
1 26.1921 27.6189 10.7635
1 26.1832 28.3881 9.98091
1 25.392 27.6039 9.96973
1 26.9858 28.4126 10.7635
1 27.7795 27.6189 10.7635
1 27.747 28.3972 9.96963
1 26.9733 27.6283 9.95507
1 28.5732 28.4126 10.7635
1 29.3669 27.6189 10.7635
1 29.2941 28.4214 9.92577
1 28.5245 27.6299 9.97305
1 30 26.8252 10.7635
1 0.793701 26.0315 10.7635
1 0.845515 26.8397 9.97103
1 0.0473812 26.047 9.90919
1 1.5874 26.8252 10.7635
1 2.3811 26.0315 10.7635
1 2.37505 26.8427 9.97008
1 1.61059 26.0354 9.95442
1 3.1748 26.8252 10.7635
1 3.9685 26.0315 10.7635
1 3.97005 26.8173 9.95501
1 3.1671 26.0608 9.95606
1 4.7622 26.8252 10.7635
1 5.5559 26.0315 10.7635
1 5.56117 26.8161 9.9526
1 4.77222 26.0258 9.96127
1 6.3496 26.8252 10.7635
1 7.1433 26.0315 10.7635
1 7.13037 26.8176 9.9721
1 6.36863 26.0364 9.97077
1 7.93701 26.8252 10.7635
1 8.73071 26.0315 10.7635
1 8.73491 26.8276 9.98235
1 7.91667 26.0438 9.97898
1 9.52441 26.8252 10.7635
1 10.3181 26.0315 10.7635
1 10.3226 26.8144 9.97862
1 9.51099 26.029 9.97104
1 11.1118 26.8252 10.7635
1 11.9055 26.0315 10.7635
1 11.8873 26.8043 9.97769
1 11.1113 26.0233 9.97397
1 12.6992 26.8252 10.7635
1 13.4929 26.0315 10.7635
1 13.5034 26.8043 9.98198
1 12.6842 25.9968 9.95795
1 14.2866 26.8252 10.7635
1 15.0803 26.0315 10.7635
1 15.0784 26.8268 9.94754
1 14.2815 26.0364 9.95014
1 15.874 26.8252 10.7635
1 16.6677 26.0315 10.7635
1 16.6729 26.8098 9.97635
1 15.8926 26.0297 9.97795
1 17.4614 26.8252 10.7635
1 18.2551 26.0315 10.7635
1 18.2657 26.8157 9.97005
1 17.4797 26.0019 9.96544
1 19.0488 26.8252 10.7635
1 19.8425 26.0315 10.7635
1 19.8105 26.8026 9.96504
1 19.0549 25.9906 9.97096
1 20.6362 26.8252 10.7635
1 21.4299 26.0315 10.7635
1 21.4276 26.8137 9.94357
1 20.6457 26.025 9.98518
1 22.2236 26.8252 10.7635
1 23.0173 26.0315 10.7635
1 23.0202 26.8103 9.9606
1 22.2215 26.0171 9.98561
1 23.811 26.8252 10.7635
1 24.6047 26.0315 10.7635
1 24.6085 26.833 9.96474
1 23.819 26.0428 9.92557
1 25.3984 26.8252 10.7635
1 26.1921 26.0315 10.7635
1 26.2043 26.8036 9.97047
1 25.3712 26.0427 9.98131
1 26.9858 26.8252 10.7635
1 27.7795 26.0315 10.7635
1 27.7795 26.7987 9.96402
1 26.989 26.0185 9.9679
1 28.5732 26.8252 10.7635
1 29.3669 26.0315 10.7635
1 29.2951 26.8272 9.94125
1 28.5335 26.0357 9.97757
1 30 25.2378 10.7635
1 0.793701 24.4441 10.7635
1 0.811071 25.2484 9.97365
1 0.0777111 24.4166 9.96136
1 1.5874 25.2378 10.7635
1 2.3811 24.4441 10.7635
1 2.37703 25.2284 9.95825
1 1.60145 24.4349 9.94314
1 3.1748 25.2378 10.7635
1 3.9685 24.4441 10.7635
1 3.97407 25.2616 9.98808
1 3.17151 24.4537 9.95804
1 4.7622 25.2378 10.7635
1 5.5559 24.4441 10.7635
1 5.56296 25.2388 9.97567
1 4.75054 24.4353 9.96868
1 6.3496 25.2378 10.7635
1 7.1433 24.4441 10.7635
1 7.14169 25.2424 9.95524
1 6.36081 24.4613 9.96113
1 7.93701 25.2378 10.7635
1 8.73071 24.4441 10.7635
1 8.6992 25.2511 9.98339
1 7.93836 24.4552 9.95835
1 9.52441 25.2378 10.7635
1 10.3181 24.4441 10.7635
1 10.3316 25.2268 9.96714
1 9.49971 24.4272 9.97742
1 11.1118 25.2378 10.7635
1 11.9055 24.4441 10.7635
1 11.8817 25.2408 9.97588
1 11.1174 24.4293 9.96654
1 12.6992 25.2378 10.7635
1 13.4929 24.4441 10.7635
1 13.5041 25.2365 9.96672
1 12.6866 24.4471 9.94703
1 14.2866 25.2378 10.7635
1 15.0803 24.4441 10.7635
1 15.0485 25.2393 9.97145
1 14.2905 24.4338 9.95199
1 15.874 25.2378 10.7635
1 16.6677 24.4441 10.7635
1 16.6641 25.2283 9.97942
1 15.8626 24.4504 9.9871
1 17.4614 25.2378 10.7635
1 18.2551 24.4441 10.7635
1 18.2406 25.2112 9.95919
1 17.4636 24.426 9.96971
1 19.0488 25.2378 10.7635
1 19.8425 24.4441 10.7635
1 19.8512 25.2314 9.95689
1 19.0612 24.4326 9.96192
1 20.6362 25.2378 10.7635
1 21.4299 24.4441 10.7635
1 21.419 25.2218 9.99116
1 20.6482 24.4198 9.97802
1 22.2236 25.2378 10.7635
1 23.0173 24.4441 10.7635
1 23.0337 25.2243 9.96786
1 22.2259 24.4325 9.96985
1 23.811 25.2378 10.7635
1 24.6047 24.4441 10.7635
1 24.6008 25.2318 9.97403
1 23.8136 24.4156 9.97536
1 25.3984 25.2378 10.7635
1 26.1921 24.4441 10.7635
1 26.1931 25.2624 10.0059
1 25.3883 24.4286 9.96039
1 26.9858 25.2378 10.7635
1 27.7795 24.4441 10.7635
1 27.7954 25.2202 9.96167
1 26.9642 24.4601 9.99724
1 28.5732 25.2378 10.7635
1 29.3669 24.4441 10.7635
1 29.305 25.2179 9.91984
1 28.5372 24.4299 9.96281
1 30 23.6504 10.7635
1 0.793701 22.8567 10.7635
1 0.848631 23.6425 9.95551
1 0.0550298 22.8398 9.9377
1 1.5874 23.6504 10.7635
1 2.3811 22.8567 10.7635
1 2.38938 23.6448 9.98885
1 1.60789 22.8652 9.9812
1 3.1748 23.6504 10.7635
1 3.9685 22.8567 10.7635
1 3.95997 23.669 9.96556
1 3.17787 22.8666 10.0046
1 4.7622 23.6504 10.7635
1 5.5559 22.8567 10.7635
1 5.56782 23.6753 9.95686
1 4.75423 22.852 9.98046
1 6.3496 23.6504 10.7635
1 7.1433 22.8567 10.7635
1 7.15771 23.6527 9.94973
1 6.35127 22.8381 9.98519
1 7.93701 23.6504 10.7635
1 8.73071 22.8567 10.7635
1 8.7039 23.634 9.95536
1 7.96007 22.8511 9.97353
1 9.52441 23.6504 10.7635
1 10.3181 22.8567 10.7635
1 10.3153 23.6564 9.9564
1 9.52912 22.8431 9.9736
1 11.1118 23.6504 10.7635
1 11.9055 22.8567 10.7635
1 11.8864 23.643 9.97289
1 11.0999 22.8685 9.98551
1 12.6992 23.6504 10.7635
1 13.4929 22.8567 10.7635
1 13.4955 23.6545 9.96007
1 12.7131 22.8638 9.95788
1 14.2866 23.6504 10.7635
1 15.0803 22.8567 10.7635
1 15.0844 23.6569 9.96999
1 14.3247 22.8507 9.9771
1 15.874 23.6504 10.7635
1 16.6677 22.8567 10.7635
1 16.6546 23.6536 9.98358
1 15.8645 22.8497 9.97424
1 17.4614 23.6504 10.7635
1 18.2551 22.8567 10.7635
1 18.2771 23.6441 9.98224
1 17.4653 22.8843 9.99075
1 19.0488 23.6504 10.7635
1 19.8425 22.8567 10.7635
1 19.8564 23.6321 9.97999
1 19.0648 22.8486 9.97018
1 20.6362 23.6504 10.7635
1 21.4299 22.8567 10.7635
1 21.4112 23.6171 9.97147
1 20.6351 22.8428 9.9812
1 22.2236 23.6504 10.7635
1 23.0173 22.8567 10.7635
1 23.0145 23.6752 9.9492
1 22.2202 22.874 9.9647
1 23.811 23.6504 10.7635
1 24.6047 22.8567 10.7635
1 24.5988 23.6162 9.96108
1 23.8095 22.8209 9.9576
1 25.3984 23.6504 10.7635
1 26.1921 22.8567 10.7635
1 26.1936 23.6669 9.97711
1 25.4018 22.8306 9.97817
1 26.9858 23.6504 10.7635
1 27.7795 22.8567 10.7635
1 27.7658 23.6601 9.96102
1 26.9817 22.8485 9.97127
1 28.5732 23.6504 10.7635
1 29.3669 22.8567 10.7635
1 29.3077 23.64 9.9556
1 28.5045 22.8705 9.96162
1 30 22.063 10.7635
1 0.793701 21.2693 10.7635
1 0.808319 22.0577 9.97632
1 0.0556024 21.2786 9.96475
1 1.5874 22.063 10.7635
1 2.3811 21.2693 10.7635
1 2.3926 22.0842 9.96663
1 1.61893 21.2939 9.97278
1 3.1748 22.063 10.7635
1 3.9685 21.2693 10.7635
1 3.99204 22.0755 9.99337
1 3.14972 21.2953 9.96478
1 4.7622 22.063 10.7635
1 5.5559 21.2693 10.7635
1 5.54887 22.0539 9.97469
1 4.75375 21.2618 9.97167
1 6.3496 22.063 10.7635
1 7.1433 21.2693 10.7635
1 7.14214 22.0483 9.97248
1 6.35709 21.2477 9.98681
1 7.93701 22.063 10.7635
1 8.73071 21.2693 10.7635
1 8.71353 22.0572 9.96302
1 7.95467 21.249 9.95574
1 9.52441 22.063 10.7635
1 10.3181 21.2693 10.7635
1 10.3046 22.0561 9.99432
1 9.50085 21.2551 9.95296
1 11.1118 22.063 10.7635
1 11.9055 21.2693 10.7635
1 11.8968 22.0558 9.96777
1 11.1358 21.2787 9.97662
1 12.6992 22.063 10.7635
1 13.4929 21.2693 10.7635
1 13.5005 22.0682 9.97445
1 12.6965 21.2513 9.96672
1 14.2866 22.063 10.7635
1 15.0803 21.2693 10.7635
1 15.0871 22.0354 9.9664
1 14.2909 21.2765 9.9852
1 15.874 22.063 10.7635
1 16.6677 21.2693 10.7635
1 16.6839 22.0528 9.9764
1 15.8888 21.265 9.99007
1 17.4614 22.063 10.7635
1 18.2551 21.2693 10.7635
1 18.2544 22.0643 9.97851
1 17.4384 21.2627 9.97407
1 19.0488 22.063 10.7635
1 19.8425 21.2693 10.7635
1 19.857 22.0475 9.95156
1 19.046 21.2408 10.0124
1 20.6362 22.063 10.7635
1 21.4299 21.2693 10.7635
1 21.4223 22.0858 9.98674
1 20.6477 21.2577 9.97141
1 22.2236 22.063 10.7635
1 23.0173 21.2693 10.7635
1 23.0207 22.0765 9.97215
1 22.2236 21.2485 9.9865
1 23.811 22.063 10.7635
1 24.6047 21.2693 10.7635
1 24.6067 22.0698 9.95801
1 23.8309 21.2791 9.97584
1 25.3984 22.063 10.7635
1 26.1921 21.2693 10.7635
1 26.1992 22.0483 9.9582
1 25.4064 21.2858 9.96253
1 26.9858 22.063 10.7635
1 27.7795 21.2693 10.7635
1 27.7635 22.0561 9.95497
1 26.9834 21.2644 9.9543
1 28.5732 22.063 10.7635
1 29.3669 21.2693 10.7635
1 29.2904 22.0835 9.96836
1 28.5469 21.2771 9.95653
1 30 20.4756 10.7635
1 0.793701 19.6819 10.7635
1 0.834366 20.4902 9.96397
1 0.0545165 19.6933 9.93043
1 1.5874 20.4756 10.7635
1 2.3811 19.6819 10.7635
1 2.40177 20.4772 9.96581
1 1.5947 19.6898 9.97728
1 3.1748 20.4756 10.7635
1 3.9685 19.6819 10.7635
1 3.97776 20.4803 10.0013
1 3.18453 19.6693 9.98236
1 4.7622 20.4756 10.7635
1 5.5559 19.6819 10.7635
1 5.56571 20.4671 9.97273
1 4.7835 19.6634 9.9676
1 6.3496 20.4756 10.7635
1 7.1433 19.6819 10.7635
1 7.16086 20.4819 9.97223
1 6.38047 19.6878 9.9685
1 7.93701 20.4756 10.7635
1 8.73071 19.6819 10.7635
1 8.74414 20.4958 9.97955
1 7.96579 19.6812 9.98176
1 9.52441 20.4756 10.7635
1 10.3181 19.6819 10.7635
1 10.3202 20.4909 9.98112
1 9.57702 19.6582 9.9726
1 11.1118 20.4756 10.7635
1 11.9055 19.6819 10.7635
1 11.9105 20.4761 9.963
1 11.1304 19.6939 9.96098
1 12.6992 20.4756 10.7635
1 13.4929 19.6819 10.7635
1 13.4704 20.4812 9.9691
1 12.7017 19.678 9.94651
1 14.2866 20.4756 10.7635
1 15.0803 19.6819 10.7635
1 15.0917 20.486 9.96813
1 14.2936 19.701 9.9747
1 15.874 20.4756 10.7635
1 16.6677 19.6819 10.7635
1 16.6619 20.4727 9.97907
1 15.8778 19.6671 9.95355
1 17.4614 20.4756 10.7635
1 18.2551 19.6819 10.7635
1 18.2395 20.4499 9.97407
1 17.4668 19.6917 9.96349
1 19.0488 20.4756 10.7635
1 19.8425 19.6819 10.7635
1 19.8224 20.4926 9.96672
1 19.023 19.6763 9.96901
1 20.6362 20.4756 10.7635
1 21.4299 19.6819 10.7635
1 21.4187 20.4527 9.97428
1 20.635 19.705 9.96361
1 22.2236 20.4756 10.7635
1 23.0173 19.6819 10.7635
1 23.0327 20.4754 9.98783
1 22.2147 19.6584 9.97791
1 23.811 20.4756 10.7635
1 24.6047 19.6819 10.7635
1 24.6105 20.5237 9.97959
1 23.8101 19.7053 9.98422
1 25.3984 20.4756 10.7635
1 26.1921 19.6819 10.7635
1 26.1935 20.4853 9.96959
1 25.3847 19.7135 9.98779
1 26.9858 20.4756 10.7635
1 27.7795 19.6819 10.7635
1 27.7836 20.4791 9.97197
1 26.9775 19.6848 9.97156
1 28.5732 20.4756 10.7635
1 29.3669 19.6819 10.7635
1 29.3107 20.4837 9.92004
1 28.5352 19.7061 9.96137
1 30 18.8882 10.7635
1 0.793701 18.0945 10.7635
1 0.809666 18.8834 9.97062
1 0.0547115 18.089 9.93563
1 1.5874 18.8882 10.7635
1 2.3811 18.0945 10.7635
1 2.39212 18.8932 9.94964
1 1.58619 18.1231 9.9662
1 3.1748 18.8882 10.7635
1 3.9685 18.0945 10.7635
1 3.981 18.8754 10.0115
1 3.19038 18.1135 9.97144
1 4.7622 18.8882 10.7635
1 5.5559 18.0945 10.7635
1 5.56992 18.8653 9.96927
1 4.76959 18.1126 9.98677
1 6.3496 18.8882 10.7635
1 7.1433 18.0945 10.7635
1 7.13838 18.8959 9.96206
1 6.36364 18.0806 9.97389
1 7.93701 18.8882 10.7635
1 8.73071 18.0945 10.7635
1 8.73664 18.8978 9.97312
1 7.94397 18.0834 9.9763
1 9.52441 18.8882 10.7635
1 10.3181 18.0945 10.7635
1 10.3178 18.8818 9.95939
1 9.52348 18.1003 9.96322
1 11.1118 18.8882 10.7635
1 11.9055 18.0945 10.7635
1 11.9279 18.897 9.94951
1 11.1374 18.1054 9.99064
1 12.6992 18.8882 10.7635
1 13.4929 18.0945 10.7635
1 13.4721 18.8851 9.95847
1 12.6999 18.085 9.96778
1 14.2866 18.8882 10.7635
1 15.0803 18.0945 10.7635
1 15.0661 18.9187 9.96717
1 14.3119 18.0978 9.95303
1 15.874 18.8882 10.7635
1 16.6677 18.0945 10.7635
1 16.6627 18.9094 9.98828
1 15.8795 18.0901 9.97147
1 17.4614 18.8882 10.7635
1 18.2551 18.0945 10.7635
1 18.2415 18.8798 9.96605
1 17.434 18.1062 9.98585
1 19.0488 18.8882 10.7635
1 19.8425 18.0945 10.7635
1 19.8519 18.9194 9.97159
1 19.023 18.11 9.95582
1 20.6362 18.8882 10.7635
1 21.4299 18.0945 10.7635
1 21.423 18.8796 9.98264
1 20.613 18.0814 9.9739
1 22.2236 18.8882 10.7635
1 23.0173 18.0945 10.7635
1 23.0196 18.8864 9.97392
1 22.2442 18.0882 9.99243
1 23.811 18.8882 10.7635
1 24.6047 18.0945 10.7635
1 24.5975 18.8859 9.98087
1 23.8195 18.0767 9.99396
1 25.3984 18.8882 10.7635
1 26.1921 18.0945 10.7635
1 26.1743 18.9264 9.94423
1 25.3951 18.0979 9.96682
1 26.9858 18.8882 10.7635
1 27.7795 18.0945 10.7635
1 27.7807 18.8875 9.96794
1 26.975 18.1164 9.98136
1 28.5732 18.8882 10.7635
1 29.3669 18.0945 10.7635
1 29.2997 18.8751 9.9442
1 28.5475 18.0865 9.9651
1 30 17.3008 10.7635
1 0.793701 16.5071 10.7635
1 0.830343 17.3218 9.98801
1 0.0561228 16.5156 9.94093
1 1.5874 17.3008 10.7635
1 2.3811 16.5071 10.7635
1 2.38224 17.3084 9.98254
1 1.63358 16.4869 9.96307
1 3.1748 17.3008 10.7635
1 3.9685 16.5071 10.7635
1 3.98233 17.3132 9.97009
1 3.18302 16.4892 9.97244
1 4.7622 17.3008 10.7635
1 5.5559 16.5071 10.7635
1 5.53324 17.3367 9.99501
1 4.74846 16.5084 9.98902
1 6.3496 17.3008 10.7635
1 7.1433 16.5071 10.7635
1 7.14025 17.3231 9.97547
1 6.34641 16.5056 9.99039
1 7.93701 17.3008 10.7635
1 8.73071 16.5071 10.7635
1 8.71875 17.3159 9.98307
1 7.9323 16.5048 9.98182
1 9.52441 17.3008 10.7635
1 10.3181 16.5071 10.7635
1 10.303 17.3237 9.96927
1 9.51738 16.5331 9.96096
1 11.1118 17.3008 10.7635
1 11.9055 16.5071 10.7635
1 11.9109 17.317 9.96219
1 11.0986 16.5379 9.99331
1 12.6992 17.3008 10.7635
1 13.4929 16.5071 10.7635
1 13.4962 17.2973 9.95905
1 12.7207 16.5196 9.95488
1 14.2866 17.3008 10.7635
1 15.0803 16.5071 10.7635
1 15.0782 17.336 9.966
1 14.2961 16.5106 9.98098
1 15.874 17.3008 10.7635
1 16.6677 16.5071 10.7635
1 16.6756 17.2918 9.99384
1 15.869 16.4806 9.97483
1 17.4614 17.3008 10.7635
1 18.2551 16.5071 10.7635
1 18.2503 17.3189 9.97393
1 17.452 16.4834 9.94896
1 19.0488 17.3008 10.7635
1 19.8425 16.5071 10.7635
1 19.8331 17.2953 9.97449
1 19.0425 16.4866 9.96003
1 20.6362 17.3008 10.7635
1 21.4299 16.5071 10.7635
1 21.4366 17.2868 10.0064
1 20.6374 16.4968 9.96864
1 22.2236 17.3008 10.7635
1 23.0173 16.5071 10.7635
1 23.0242 17.2855 9.95666
1 22.2526 16.4916 9.99905
1 23.811 17.3008 10.7635
1 24.6047 16.5071 10.7635
1 24.5997 17.3048 9.95438
1 23.7958 16.4803 9.9726
1 25.3984 17.3008 10.7635
1 26.1921 16.5071 10.7635
1 26.1927 17.2945 9.97539
1 25.4052 16.4992 9.97429
1 26.9858 17.3008 10.7635
1 27.7795 16.5071 10.7635
1 27.7733 17.2707 9.96055
1 26.9612 16.5117 9.97891
1 28.5732 17.3008 10.7635
1 29.3669 16.5071 10.7635
1 29.3166 17.2879 9.93767
1 28.5255 16.5141 9.97892
1 30 15.7134 10.7635
1 0.793701 14.9197 10.7635
1 0.838367 15.7284 9.95841
1 0.0705361 14.9115 9.9432
1 1.5874 15.7134 10.7635
1 2.3811 14.9197 10.7635
1 2.39933 15.727 9.96098
1 1.61154 14.9283 9.97287
1 3.1748 15.7134 10.7635
1 3.9685 14.9197 10.7635
1 3.96272 15.7095 9.9838
1 3.18755 14.9362 9.97152
1 4.7622 15.7134 10.7635
1 5.5559 14.9197 10.7635
1 5.56921 15.733 9.98229
1 4.78371 14.9208 9.97744
1 6.3496 15.7134 10.7635
1 7.1433 14.9197 10.7635
1 7.14782 15.6997 9.9612
1 6.34889 14.9312 9.97938
1 7.93701 15.7134 10.7635
1 8.73071 14.9197 10.7635
1 8.73059 15.732 9.95005
1 7.92424 14.9001 9.97556
1 9.52441 15.7134 10.7635
1 10.3181 14.9197 10.7635
1 10.3211 15.7204 9.96678
1 9.5288 14.9167 9.97714
1 11.1118 15.7134 10.7635
1 11.9055 14.9197 10.7635
1 11.9022 15.7212 9.9597
1 11.1066 14.9293 9.98919
1 12.6992 15.7134 10.7635
1 13.4929 14.9197 10.7635
1 13.4895 15.7263 9.98585
1 12.72 14.9477 9.98135
1 14.2866 15.7134 10.7635
1 15.0803 14.9197 10.7635
1 15.0822 15.7069 9.99832
1 14.2747 14.9067 9.97564
1 15.874 15.7134 10.7635
1 16.6677 14.9197 10.7635
1 16.676 15.7022 9.97439
1 15.8837 14.9152 9.96743
1 17.4614 15.7134 10.7635
1 18.2551 14.9197 10.7635
1 18.2679 15.6839 9.9518
1 17.4574 14.9148 9.98298
1 19.0488 15.7134 10.7635
1 19.8425 14.9197 10.7635
1 19.8556 15.6954 9.97054
1 19.0316 14.9106 9.98425
1 20.6362 15.7134 10.7635
1 21.4299 14.9197 10.7635
1 21.4154 15.706 9.96796
1 20.6319 14.9174 9.97636
1 22.2236 15.7134 10.7635
1 23.0173 14.9197 10.7635
1 22.9951 15.7213 9.9875
1 22.1848 14.9442 9.96828
1 23.811 15.7134 10.7635
1 24.6047 14.9197 10.7635
1 24.5975 15.7097 9.97785
1 23.8157 14.911 9.98502
1 25.3984 15.7134 10.7635
1 26.1921 14.9197 10.7635
1 26.1564 15.7022 10.0006
1 25.3919 14.9077 9.97424
1 26.9858 15.7134 10.7635
1 27.7795 14.9197 10.7635
1 27.7761 15.694 9.96831
1 26.9739 14.9256 9.96456
1 28.5732 15.7134 10.7635
1 29.3669 14.9197 10.7635
1 29.2864 15.7115 9.92466
1 28.5794 14.9 9.99089
1 30 14.126 10.7635
1 0.793701 13.3323 10.7635
1 0.821998 14.1203 9.95218
1 0.0606809 13.3489 9.93086
1 1.5874 14.126 10.7635
1 2.3811 13.3323 10.7635
1 2.39891 14.1005 9.9621
1 1.60841 13.3301 9.95278
1 3.1748 14.126 10.7635
1 3.9685 13.3323 10.7635
1 3.97199 14.1207 9.95164
1 3.21068 13.3341 9.97769
1 4.7622 14.126 10.7635
1 5.5559 13.3323 10.7635
1 5.56274 14.1085 9.97641
1 4.75638 13.3628 9.98951
1 6.3496 14.126 10.7635
1 7.1433 13.3323 10.7635
1 7.14876 14.1192 9.99351
1 6.3549 13.3369 9.97952
1 7.93701 14.126 10.7635
1 8.73071 13.3323 10.7635
1 8.75907 14.1429 9.96375
1 7.93074 13.3364 9.96277
1 9.52441 14.126 10.7635
1 10.3181 13.3323 10.7635
1 10.3347 14.1311 9.98707
1 9.51779 13.3474 9.96259
1 11.1118 14.126 10.7635
1 11.9055 13.3323 10.7635
1 11.9146 14.1318 9.98472
1 11.1346 13.3453 9.96077
1 12.6992 14.126 10.7635
1 13.4929 13.3323 10.7635
1 13.5103 14.1394 9.97311
1 12.7303 13.3377 9.94903
1 14.2866 14.126 10.7635
1 15.0803 13.3323 10.7635
1 15.0675 14.1109 9.96307
1 14.2746 13.3143 9.96444
1 15.874 14.126 10.7635
1 16.6677 13.3323 10.7635
1 16.6599 14.1014 9.98429
1 15.8784 13.3261 9.97707
1 17.4614 14.126 10.7635
1 18.2551 13.3323 10.7635
1 18.2581 14.1508 10.0128
1 17.4707 13.3398 9.97657
1 19.0488 14.126 10.7635
1 19.8425 13.3323 10.7635
1 19.8632 14.1363 9.98584
1 19.0244 13.3453 9.97851
1 20.6362 14.126 10.7635
1 21.4299 13.3323 10.7635
1 21.4168 14.1196 9.9841
1 20.6369 13.309 9.97595
1 22.2236 14.126 10.7635
1 23.0173 13.3323 10.7635
1 23.0082 14.1118 9.96454
1 22.2281 13.3459 9.99253
1 23.811 14.126 10.7635
1 24.6047 13.3323 10.7635
1 24.6135 14.121 9.98578
1 23.8136 13.3446 9.96895
1 25.3984 14.126 10.7635
1 26.1921 13.3323 10.7635
1 26.2107 14.1185 9.97297
1 25.4055 13.3321 9.97723
1 26.9858 14.126 10.7635
1 27.7795 13.3323 10.7635
1 27.7641 14.1282 9.96022
1 26.9903 13.3203 9.96988
1 28.5732 14.126 10.7635
1 29.3669 13.3323 10.7635
1 29.2856 14.1236 9.94984
1 28.5309 13.3073 9.94284
1 30 12.5386 10.7635
1 0.793701 11.7449 10.7635
1 0.830617 12.5333 9.96942
1 0.0651365 11.7564 9.94907
1 1.5874 12.5386 10.7635
1 2.3811 11.7449 10.7635
1 2.39667 12.5375 9.98652
1 1.60491 11.7325 9.99475
1 3.1748 12.5386 10.7635
1 3.9685 11.7449 10.7635
1 3.97688 12.5493 9.97605
1 3.20043 11.7284 9.97533
1 4.7622 12.5386 10.7635
1 5.5559 11.7449 10.7635
1 5.55785 12.5321 9.9616
1 4.78857 11.7604 9.97578
1 6.3496 12.5386 10.7635
1 7.1433 11.7449 10.7635
1 7.12887 12.529 9.9689
1 6.36021 11.7262 9.96397
1 7.93701 12.5386 10.7635
1 8.73071 11.7449 10.7635
1 8.72873 12.562 9.97207
1 7.94634 11.7513 9.9724
1 9.52441 12.5386 10.7635
1 10.3181 11.7449 10.7635
1 10.3078 12.5471 9.95353
1 9.48984 11.7478 9.96585
1 11.1118 12.5386 10.7635
1 11.9055 11.7449 10.7635
1 11.9347 12.5192 9.96421
1 11.1098 11.7713 9.96396
1 12.6992 12.5386 10.7635
1 13.4929 11.7449 10.7635
1 13.5129 12.513 9.96101
1 12.6844 11.7357 9.97991
1 14.2866 12.5386 10.7635
1 15.0803 11.7449 10.7635
1 15.0938 12.5717 9.96231
1 14.3044 11.7308 9.94634
1 15.874 12.5386 10.7635
1 16.6677 11.7449 10.7635
1 16.6795 12.534 9.96638
1 15.8811 11.7311 9.96201
1 17.4614 12.5386 10.7635
1 18.2551 11.7449 10.7635
1 18.256 12.5217 9.96407
1 17.45 11.7235 9.95566
1 19.0488 12.5386 10.7635
1 19.8425 11.7449 10.7635
1 19.8584 12.5527 9.96268
1 19.0456 11.7611 9.98108
1 20.6362 12.5386 10.7635
1 21.4299 11.7449 10.7635
1 21.4333 12.5413 9.95095
1 20.6524 11.7176 9.97458
1 22.2236 12.5386 10.7635
1 23.0173 11.7449 10.7635
1 23.028 12.5466 9.98598
1 22.2268 11.745 9.9851
1 23.811 12.5386 10.7635
1 24.6047 11.7449 10.7635
1 24.5892 12.5468 9.98314
1 23.8348 11.739 9.96806
1 25.3984 12.5386 10.7635
1 26.1921 11.7449 10.7635
1 26.1942 12.5361 9.99512
1 25.399 11.7245 9.98839
1 26.9858 12.5386 10.7635
1 27.7795 11.7449 10.7635
1 27.7633 12.52 9.98325
1 26.9631 11.745 9.97149
1 28.5732 12.5386 10.7635
1 29.3669 11.7449 10.7635
1 29.3056 12.5263 9.94721
1 28.5778 11.7424 9.97513
1 30 10.9512 10.7635
1 0.793701 10.1575 10.7635
1 0.807104 10.9246 9.98222
1 0.0690786 10.1427 9.93612
1 1.5874 10.9512 10.7635
1 2.3811 10.1575 10.7635
1 2.40182 10.9493 9.97689
1 1.59986 10.1586 9.97455
1 3.1748 10.9512 10.7635
1 3.9685 10.1575 10.7635
1 4.01055 10.9513 9.96854
1 3.17295 10.1617 9.99032
1 4.7622 10.9512 10.7635
1 5.5559 10.1575 10.7635
1 5.55795 10.9273 9.98086
1 4.74968 10.1618 9.957
1 6.3496 10.9512 10.7635
1 7.1433 10.1575 10.7635
1 7.1819 10.9277 9.97773
1 6.37705 10.1653 9.96747
1 7.93701 10.9512 10.7635
1 8.73071 10.1575 10.7635
1 8.74213 10.9601 9.98771
1 7.94238 10.1311 9.99502
1 9.52441 10.9512 10.7635
1 10.3181 10.1575 10.7635
1 10.3071 10.9633 9.98671
1 9.54077 10.1475 9.94661
1 11.1118 10.9512 10.7635
1 11.9055 10.1575 10.7635
1 11.8897 10.9632 9.96308
1 11.1004 10.1347 9.9787
1 12.6992 10.9512 10.7635
1 13.4929 10.1575 10.7635
1 13.4924 10.9325 9.96852
1 12.7144 10.1783 9.9819
1 14.2866 10.9512 10.7635
1 15.0803 10.1575 10.7635
1 15.092 10.9376 9.97638
1 14.3098 10.1444 9.97775
1 15.874 10.9512 10.7635
1 16.6677 10.1575 10.7635
1 16.6796 10.9317 9.97954
1 15.8826 10.1386 9.95065
1 17.4614 10.9512 10.7635
1 18.2551 10.1575 10.7635
1 18.2739 10.9289 9.97485
1 17.463 10.1427 9.9638
1 19.0488 10.9512 10.7635
1 19.8425 10.1575 10.7635
1 19.8503 10.958 9.98861
1 19.0636 10.1431 9.97506
1 20.6362 10.9512 10.7635
1 21.4299 10.1575 10.7635
1 21.4416 10.9493 9.95373
1 20.6317 10.1683 9.98945
1 22.2236 10.9512 10.7635
1 23.0173 10.1575 10.7635
1 23.0176 10.9385 9.96339
1 22.2339 10.1509 9.98194
1 23.811 10.9512 10.7635
1 24.6047 10.1575 10.7635
1 24.6051 10.9611 9.96656
1 23.792 10.1584 9.97973
1 25.3984 10.9512 10.7635
1 26.1921 10.1575 10.7635
1 26.1685 10.9391 9.97824
1 25.3794 10.1552 9.97703
1 26.9858 10.9512 10.7635
1 27.7795 10.1575 10.7635
1 27.7622 10.9461 9.96703
1 26.9667 10.1324 9.96151
1 28.5732 10.9512 10.7635
1 29.3669 10.1575 10.7635
1 29.3054 10.962 9.96137
1 28.5275 10.147 9.96426
1 30 9.36379 10.7635
1 0.793701 8.57009 10.7635
1 0.809176 9.37224 9.94525
1 0.0722195 8.58654 9.93263
1 1.5874 9.36379 10.7635
1 2.3811 8.57009 10.7635
1 2.39986 9.37147 9.96622
1 1.5821 8.6098 9.96375
1 3.1748 9.36379 10.7635
1 3.9685 8.57009 10.7635
1 3.94246 9.38359 9.97853
1 3.18718 8.57186 9.97395
1 4.7622 9.36379 10.7635
1 5.5559 8.57009 10.7635
1 5.53458 9.37229 9.9588
1 4.75481 8.57694 9.95659
1 6.3496 9.36379 10.7635
1 7.1433 8.57009 10.7635
1 7.14637 9.35466 9.96864
1 6.33696 8.59902 9.95141
1 7.93701 9.36379 10.7635
1 8.73071 8.57009 10.7635
1 8.74562 9.35604 9.95723
1 7.92721 8.58069 9.97205
1 9.52441 9.36379 10.7635
1 10.3181 8.57009 10.7635
1 10.3223 9.36545 9.9713
1 9.52087 8.5787 9.96815
1 11.1118 9.36379 10.7635
1 11.9055 8.57009 10.7635
1 11.9131 9.36515 9.96343
1 11.1183 8.55957 9.95611
1 12.6992 9.36379 10.7635
1 13.4929 8.57009 10.7635
1 13.5042 9.35091 9.97463
1 12.6916 8.55646 9.98358
1 14.2866 9.36379 10.7635
1 15.0803 8.57009 10.7635
1 15.0813 9.33253 9.96634
1 14.2683 8.55531 9.97995
1 15.874 9.36379 10.7635
1 16.6677 8.57009 10.7635
1 16.6706 9.36209 9.9616
1 15.8698 8.55311 9.99492
1 17.4614 9.36379 10.7635
1 18.2551 8.57009 10.7635
1 18.2628 9.36905 9.96839
1 17.4745 8.56238 9.94443
1 19.0488 9.36379 10.7635
1 19.8425 8.57009 10.7635
1 19.8454 9.33716 9.98364
1 19.0501 8.586 9.9266
1 20.6362 9.36379 10.7635
1 21.4299 8.57009 10.7635
1 21.4228 9.36728 9.96053
1 20.6482 8.5755 9.96033
1 22.2236 9.36379 10.7635
1 23.0173 8.57009 10.7635
1 23.0145 9.38731 9.95781
1 22.2142 8.59786 9.9716
1 23.811 9.36379 10.7635
1 24.6047 8.57009 10.7635
1 24.5985 9.35898 9.97131
1 23.7869 8.57427 9.97364
1 25.3984 9.36379 10.7635
1 26.1921 8.57009 10.7635
1 26.1851 9.34344 9.95874
1 25.3825 8.57322 9.9892
1 26.9858 9.36379 10.7635
1 27.7795 8.57009 10.7635
1 27.7716 9.37871 9.9801
1 26.9815 8.56346 9.94994
1 28.5732 9.36379 10.7635
1 29.3669 8.57009 10.7635
1 29.2614 9.36427 9.93753
1 28.5273 8.54199 9.9647
1 30 7.77639 10.7635
1 0.793701 6.98268 10.7635
1 0.81771 7.78128 9.96367
1 0.0838721 6.98317 9.94489
1 1.5874 7.77639 10.7635
1 2.3811 6.98268 10.7635
1 2.37361 7.81319 9.97038
1 1.60518 6.98767 9.94226
1 3.1748 7.77639 10.7635
1 3.9685 6.98268 10.7635
1 3.97264 7.78311 9.98393
1 3.17688 6.97419 9.95054
1 4.7622 7.77639 10.7635
1 5.5559 6.98268 10.7635
1 5.55074 7.76032 9.96227
1 4.74323 6.97885 9.95424
1 6.3496 7.77639 10.7635
1 7.1433 6.98268 10.7635
1 7.1204 7.77734 9.98264
1 6.34397 6.98021 9.97467
1 7.93701 7.77639 10.7635
1 8.73071 6.98268 10.7635
1 8.73804 7.78927 9.97533
1 7.94788 6.9733 9.94991
1 9.52441 7.77639 10.7635
1 10.3181 6.98268 10.7635
1 10.3212 7.79548 9.96795
1 9.49374 6.99493 9.98443
1 11.1118 7.77639 10.7635
1 11.9055 6.98268 10.7635
1 11.9087 7.78956 9.95778
1 11.1057 6.99752 9.98248
1 12.6992 7.77639 10.7635
1 13.4929 6.98268 10.7635
1 13.5004 7.78016 9.9479
1 12.7068 7.02097 9.94759
1 14.2866 7.77639 10.7635
1 15.0803 6.98268 10.7635
1 15.041 7.77898 9.96336
1 14.2652 6.96847 9.97022
1 15.874 7.77639 10.7635
1 16.6677 6.98268 10.7635
1 16.6511 7.76697 9.95811
1 15.866 6.97025 9.93625
1 17.4614 7.77639 10.7635
1 18.2551 6.98268 10.7635
1 18.2957 7.79085 9.96175
1 17.4661 7.0146 9.97164
1 19.0488 7.77639 10.7635
1 19.8425 6.98268 10.7635
1 19.8729 7.77094 9.95757
1 19.0532 7.01518 9.95903
1 20.6362 7.77639 10.7635
1 21.4299 6.98268 10.7635
1 21.452 7.7912 9.96306
1 20.6537 7.01613 9.97949
1 22.2236 7.77639 10.7635
1 23.0173 6.98268 10.7635
1 22.9723 7.78571 9.97032
1 22.2016 6.9714 9.96354
1 23.811 7.77639 10.7635
1 24.6047 6.98268 10.7635
1 24.5802 7.75783 9.97373
1 23.7969 6.95897 9.96215
1 25.3984 7.77639 10.7635
1 26.1921 6.98268 10.7635
1 26.2011 7.76892 9.92867
1 25.4017 6.9716 9.9757
1 26.9858 7.77639 10.7635
1 27.7795 6.98268 10.7635
1 27.7702 7.78249 9.9743
1 26.9836 6.97442 9.95748
1 28.5732 7.77639 10.7635
1 29.3669 6.98268 10.7635
1 29.3108 7.77987 9.95104
1 28.5495 6.99027 9.9576
1 30 6.18898 10.7635
1 0.793701 5.39528 10.7635
1 0.859293 6.17755 9.94352
1 0.053952 5.3921 9.92838
1 1.5874 6.18898 10.7635
1 2.3811 5.39528 10.7635
1 2.38479 6.18732 9.95796
1 1.58691 5.38701 9.98302
1 3.1748 6.18898 10.7635
1 3.9685 5.39528 10.7635
1 3.97226 6.19148 9.9567
1 3.19068 5.39142 9.96829
1 4.7622 6.18898 10.7635
1 5.5559 5.39528 10.7635
1 5.55221 6.21511 9.98116
1 4.77774 5.37909 9.98305
1 6.3496 6.18898 10.7635
1 7.1433 5.39528 10.7635
1 7.15676 6.16495 9.95405
1 6.31908 5.41001 9.98217
1 7.93701 6.18898 10.7635
1 8.73071 5.39528 10.7635
1 8.733 6.19354 9.96655
1 7.96319 5.40263 9.98402
1 9.52441 6.18898 10.7635