9376
Atoms. Timestep: 4000000
1 22.5 3.55271e-15 10.6021
1 23.2937 29.2063 10.6021
1 23.3183 29.9272 9.78004
1 22.5638 29.2019 9.77731
1 24.0874 3.55271e-15 10.6021
1 24.8811 29.2063 10.6021
1 24.9103 29.9276 9.78509
1 24.1091 29.1612 9.78156
1 25.6748 3.55271e-15 10.6021
1 26.4685 29.2063 10.6021
1 26.4821 29.9413 9.7762
1 25.694 29.1963 9.80782
1 27.2622 3.55271e-15 10.6021
1 28.0559 29.2063 10.6021
1 28.0729 29.9326 9.80138
1 27.2651 29.1569 9.8103
1 28.8496 3.55271e-15 10.6021
1 29.6433 29.2063 10.6021
1 29.6576 29.93 9.79252
1 28.8476 29.1601 9.82327
1 0.437005 3.55271e-15 10.6021
1 1.23071 29.2063 10.6021
1 1.23354 29.9402 9.79007
1 0.420701 29.1523 9.82034
1 2.02441 3.55271e-15 10.6021
1 2.81811 29.2063 10.6021
1 2.82049 29.9353 9.77082
1 2.01249 29.2019 9.81786
1 3.61181 3.55271e-15 10.6021
1 4.40551 29.2063 10.6021
1 4.42342 29.938 9.75985
1 3.62037 29.1926 9.77017
1 5.19921 3.55271e-15 10.6021
1 5.99291 29.2063 10.6021
1 5.97088 29.9477 9.7633
1 5.19367 29.1582 9.80452
1 6.78661 3.55271e-15 10.6021
1 7.58031 29.2063 10.6021
1 7.58424 29.9171 9.75516
1 6.79386 29.178 9.80606
1 8.37401 3.55271e-15 10.6021
1 9.16771 29.2063 10.6021
1 9.17443 29.9084 9.79286
1 8.37023 29.1775 9.78971
1 9.96141 3.55271e-15 10.6021
1 10.7551 29.2063 10.6021
1 10.749 29.9193 9.77103
1 9.95588 29.1635 9.81916
1 11.5488 3.55271e-15 10.6021
1 12.3425 29.2063 10.6021
1 12.3532 29.9149 9.78149
1 11.5596 29.1826 9.82431
1 13.1362 3.55271e-15 10.6021
1 13.9299 29.2063 10.6021
1 13.9298 29.9473 9.7626
1 13.1453 29.1653 9.78714
1 14.7236 3.55271e-15 10.6021
1 15.5173 29.2063 10.6021
1 15.4897 29.9346 9.75993
1 14.7229 29.1885 9.80866
1 16.311 3.55271e-15 10.6021
1 17.1047 29.2063 10.6021
1 17.0895 29.9571 9.76298
1 16.3113 29.2107 9.82018
1 17.8984 3.55271e-15 10.6021
1 18.6921 29.2063 10.6021
1 18.655 29.9214 9.77828
1 17.883 29.1516 9.80849
1 19.4858 3.55271e-15 10.6021
1 20.2795 29.2063 10.6021
1 20.2496 29.9444 9.77532
1 19.4769 29.1892 9.78796
1 21.0732 3.55271e-15 10.6021
1 21.8669 29.2063 10.6021
1 21.7803 29.9241 9.73489
1 21.0207 29.1765 9.7658
1 22.5 28.4126 10.6021
1 23.2937 27.6189 10.6021
1 23.3272 28.3889 9.80068
1 22.533 27.583 9.75995
1 24.0874 28.4126 10.6021
1 24.8811 27.6189 10.6021
1 24.9018 28.3945 9.80635
1 24.1234 27.6124 9.80485
1 25.6748 28.4126 10.6021
1 26.4685 27.6189 10.6021
1 26.4492 28.3905 9.8083
1 25.6735 27.6057 9.80221
1 27.2622 28.4126 10.6021
1 28.0559 27.6189 10.6021
1 28.0673 28.3773 9.83147
1 27.2691 27.6256 9.80298
1 28.8496 28.4126 10.6021
1 29.6433 27.6189 10.6021
1 29.6502 28.3777 9.7974
1 28.8493 27.5877 9.83687
1 0.437005 28.4126 10.6021
1 1.23071 27.6189 10.6021
1 1.24583 28.4 9.82664
1 0.447725 27.6011 9.78765
1 2.02441 28.4126 10.6021
1 2.81811 27.6189 10.6021
1 2.76733 28.4283 9.80657
1 2.02758 27.6418 9.82359
1 3.61181 28.4126 10.6021
1 4.40551 27.6189 10.6021
1 4.40029 28.3826 9.80783
1 3.60119 27.6338 9.83149
1 5.19921 28.4126 10.6021
1 5.99291 27.6189 10.6021
1 5.99793 28.4101 9.79766
1 5.21035 27.6305 9.82846
1 6.78661 28.4126 10.6021
1 7.58031 27.6189 10.6021
1 7.60205 28.3873 9.79697
1 6.77244 27.6387 9.79355
1 8.37401 28.4126 10.6021
1 9.16771 27.6189 10.6021
1 9.17811 28.383 9.80287
1 8.40034 27.6095 9.78378
1 9.96141 28.4126 10.6021
1 10.7551 27.6189 10.6021
1 10.778 28.4183 9.82479
1 9.97147 27.6113 9.80178
1 11.5488 28.4126 10.6021
1 12.3425 27.6189 10.6021
1 12.3596 28.3643 9.79962
1 11.5584 27.5995 9.80425
1 13.1362 28.4126 10.6021
1 13.9299 27.6189 10.6021
1 13.9291 28.3853 9.80774
1 13.15 27.5759 9.82552
1 14.7236 28.4126 10.6021
1 15.5173 27.6189 10.6021
1 15.5188 28.4055 9.80298
1 14.7135 27.6196 9.80922
1 16.311 28.4126 10.6021
1 17.1047 27.6189 10.6021
1 17.0966 28.3923 9.79605
1 16.3269 27.6005 9.81865
1 17.8984 28.4126 10.6021
1 18.6921 27.6189 10.6021
1 18.6886 28.3751 9.84029
1 17.8873 27.6203 9.80127
1 19.4858 28.4126 10.6021
1 20.2795 27.6189 10.6021
1 20.261 28.3882 9.8297
1 19.4684 27.6182 9.81012
1 21.0732 28.4126 10.6021
1 21.8669 27.6189 10.6021
1 21.7957 28.4137 9.77939
1 21.0532 27.6251 9.79878
1 22.5 26.8252 10.6021
1 23.2937 26.0315 10.6021
1 23.3187 26.8153 9.80832
1 22.5996 26.0526 9.76584
1 24.0874 26.8252 10.6021
1 24.8811 26.0315 10.6021
1 24.877 26.8074 9.79534
1 24.0939 26.0114 9.81051
1 25.6748 26.8252 10.6021
1 26.4685 26.0315 10.6021
1 26.4654 26.8426 9.80933
1 25.7046 26.0094 9.81478
1 27.2622 26.8252 10.6021
1 28.0559 26.0315 10.6021
1 28.0463 26.8245 9.80749
1 27.2621 26.029 9.82587
1 28.8496 26.8252 10.6021
1 29.6433 26.0315 10.6021
1 29.6449 26.8102 9.79193
1 28.8613 26.0376 9.7879
1 0.437005 26.8252 10.6021
1 1.23071 26.0315 10.6021
1 1.24747 26.8097 9.8073
1 0.435021 26.0229 9.83388
1 2.02441 26.8252 10.6021
1 2.81811 26.0315 10.6021
1 2.81365 26.7833 9.79189
1 2.03656 26.0102 9.79339
1 3.61181 26.8252 10.6021
1 4.40551 26.0315 10.6021
1 4.4009 26.8181 9.81589
1 3.63371 26.0085 9.80514
1 5.19921 26.8252 10.6021
1 5.99291 26.0315 10.6021
1 5.98057 26.8307 9.80486
1 5.19157 26.0296 9.80027
1 6.78661 26.8252 10.6021
1 7.58031 26.0315 10.6021
1 7.59303 26.835 9.82922
1 6.76006 26.0185 9.82376
1 8.37401 26.8252 10.6021
1 9.16771 26.0315 10.6021
1 9.17438 26.817 9.81729
1 8.38005 26.0376 9.81488
1 9.96141 26.8252 10.6021
1 10.7551 26.0315 10.6021
1 10.7605 26.8246 9.79536
1 9.94661 26.0179 9.79596
1 11.5488 26.8252 10.6021
1 12.3425 26.0315 10.6021
1 12.3702 26.8127 9.82216
1 11.5548 26.0424 9.80837
1 13.1362 26.8252 10.6021
1 13.9299 26.0315 10.6021
1 13.92 26.8295 9.81189
1 13.1231 26.0341 9.82381
1 14.7236 26.8252 10.6021
1 15.5173 26.0315 10.6021
1 15.5146 26.845 9.8165
1 14.7107 26.0505 9.79246
1 16.311 26.8252 10.6021
1 17.1047 26.0315 10.6021
1 17.107 26.8058 9.831
1 16.2963 26.0671 9.82227
1 17.8984 26.8252 10.6021
1 18.6921 26.0315 10.6021
1 18.6909 26.8059 9.83391
1 17.8817 26.0261 9.81502
1 19.4858 26.8252 10.6021
1 20.2795 26.0315 10.6021
1 20.2554 26.8224 9.81815
1 19.4766 26.0487 9.82801
1 21.0732 26.8252 10.6021
1 21.8669 26.0315 10.6021
1 21.8137 26.8039 9.78767
1 21.0564 26.0291 9.79592
1 22.5 25.2378 10.6021
1 23.2937 24.4441 10.6021
1 23.3242 25.2256 9.79905
1 22.5763 24.4461 9.79033
1 24.0874 25.2378 10.6021
1 24.8811 24.4441 10.6021
1 24.8901 25.2166 9.80819
1 24.0836 24.4579 9.78465
1 25.6748 25.2378 10.6021
1 26.4685 24.4441 10.6021
1 26.4596 25.246 9.81827
1 25.6587 24.4474 9.82005
1 27.2622 25.2378 10.6021
1 28.0559 24.4441 10.6021
1 28.068 25.2058 9.79947
1 27.2608 24.4554 9.82314
1 28.8496 25.2378 10.6021
1 29.6433 24.4441 10.6021
1 29.6383 25.2103 9.81279
1 28.8506 24.4459 9.78763
1 0.437005 25.2378 10.6021
1 1.23071 24.4441 10.6021
1 1.24238 25.2372 9.79903
1 0.465411 24.4546 9.79733
1 2.02441 25.2378 10.6021
1 2.81811 24.4441 10.6021
1 2.83926 25.2241 9.81287
1 2.0183 24.4231 9.80608
1 3.61181 25.2378 10.6021
1 4.40551 24.4441 10.6021
1 4.41769 25.212 9.80505
1 3.62509 24.4506 9.82897
1 5.19921 25.2378 10.6021
1 5.99291 24.4441 10.6021
1 5.97126 25.2316 9.8228
1 5.20812 24.4164 9.80743
1 6.78661 25.2378 10.6021
1 7.58031 24.4441 10.6021
1 7.57728 25.2418 9.80385
1 6.7855 24.4438 9.80836
1 8.37401 25.2378 10.6021
1 9.16771 24.4441 10.6021
1 9.14941 25.2249 9.81488
1 8.3697 24.4596 9.81578
1 9.96141 25.2378 10.6021
1 10.7551 24.4441 10.6021
1 10.756 25.2545 9.8058
1 9.96419 24.4548 9.80593
1 11.5488 25.2378 10.6021
1 12.3425 24.4441 10.6021
1 12.3697 25.2539 9.80555
1 11.5709 24.4491 9.81726
1 13.1362 25.2378 10.6021
1 13.9299 24.4441 10.6021
1 13.9312 25.2517 9.81114
1 13.1375 24.4642 9.79122
1 14.7236 25.2378 10.6021
1 15.5173 24.4441 10.6021
1 15.4958 25.2539 9.79968
1 14.7261 24.4512 9.803
1 16.311 25.2378 10.6021
1 17.1047 24.4441 10.6021
1 17.1058 25.2331 9.81956
1 16.2998 24.4328 9.81901
1 17.8984 25.2378 10.6021
1 18.6921 24.4441 10.6021
1 18.6887 25.2522 9.80398
1 17.892 24.4294 9.81717
1 19.4858 25.2378 10.6021
1 20.2795 24.4441 10.6021
1 20.2338 25.1907 9.82817
1 19.4566 24.4357 9.83111
1 21.0732 25.2378 10.6021
1 21.8669 24.4441 10.6021
1 21.812 25.2361 9.77197
1 21.0422 24.4512 9.81029
1 22.5 23.6504 10.6021
1 23.2937 22.8567 10.6021
1 23.3119 23.6473 9.80279
1 22.575 22.8769 9.76513
1 24.0874 23.6504 10.6021
1 24.8811 22.8567 10.6021
1 24.9089 23.6559 9.82253
1 24.1021 22.8719 9.82331
1 25.6748 23.6504 10.6021
1 26.4685 22.8567 10.6021
1 26.4534 23.6568 9.81559
1 25.6958 22.8771 9.81179
1 27.2622 23.6504 10.6021
1 28.0559 22.8567 10.6021
1 28.0447 23.6533 9.84797
1 27.2542 22.8617 9.81643
1 28.8496 23.6504 10.6021
1 29.6433 22.8567 10.6021
1 29.6556 23.6506 9.84111
1 28.8394 22.8972 9.82177
1 0.437005 23.6504 10.6021
1 1.23071 22.8567 10.6021
1 1.22785 23.6225 9.79651
1 0.449286 22.8631 9.82126
1 2.02441 23.6504 10.6021
1 2.81811 22.8567 10.6021
1 2.82754 23.6315 9.81753
1 2.00726 22.8456 9.8173
1 3.61181 23.6504 10.6021
1 4.40551 22.8567 10.6021
1 4.40794 23.6321 9.80481
1 3.61292 22.8191 9.79925
1 5.19921 23.6504 10.6021
1 5.99291 22.8567 10.6021
1 6.00766 23.6511 9.7909
1 5.21766 22.8766 9.8016
1 6.78661 23.6504 10.6021
1 7.58031 22.8567 10.6021
1 7.57266 23.6857 9.80216
1 6.79873 22.8767 9.82591
1 8.37401 23.6504 10.6021
1 9.16771 22.8567 10.6021
1 9.15901 23.6472 9.84241
1 8.3664 22.8864 9.82093
1 9.96141 23.6504 10.6021
1 10.7551 22.8567 10.6021
1 10.7446 23.6724 9.79722
1 9.97129 22.8752 9.81827
1 11.5488 23.6504 10.6021
1 12.3425 22.8567 10.6021
1 12.3336 23.6381 9.8224
1 11.5474 22.8552 9.79449
1 13.1362 23.6504 10.6021
1 13.9299 22.8567 10.6021
1 13.9331 23.6398 9.81029
1 13.1181 22.8668 9.79594
1 14.7236 23.6504 10.6021
1 15.5173 22.8567 10.6021
1 15.5222 23.6455 9.81031
1 14.7383 22.8613 9.79306
1 16.311 23.6504 10.6021
1 17.1047 22.8567 10.6021
1 17.0963 23.6125 9.80613
1 16.3155 22.823 9.81517
1 17.8984 23.6504 10.6021
1 18.6921 22.8567 10.6021
1 18.6787 23.6206 9.80548
1 17.9073 22.8326 9.82618
1 19.4858 23.6504 10.6021
1 20.2795 22.8567 10.6021
1 20.2651 23.6336 9.81176
1 19.4698 22.8449 9.80822
1 21.0732 23.6504 10.6021
1 21.8669 22.8567 10.6021
1 21.8027 23.6257 9.79923
1 21.0369 22.8693 9.79464
1 22.5 22.063 10.6021
1 23.2937 21.2693 10.6021
1 23.3219 22.0531 9.81395
1 22.5466 21.2691 9.7777
1 24.0874 22.063 10.6021
1 24.8811 21.2693 10.6021
1 24.9127 22.0479 9.79237
1 24.0924 21.2872 9.79795
1 25.6748 22.063 10.6021
1 26.4685 21.2693 10.6021
1 26.4576 22.0514 9.78774
1 25.6828 21.2685 9.84579
1 27.2622 22.063 10.6021
1 28.0559 21.2693 10.6021
1 28.0676 22.0715 9.7839
1 27.2624 21.2651 9.80229
1 28.8496 22.063 10.6021
1 29.6433 21.2693 10.6021
1 29.656 22.0677 9.81008
1 28.8453 21.2867 9.81893
1 0.437005 22.063 10.6021
1 1.23071 21.2693 10.6021
1 1.20735 22.0855 9.82601
1 0.438276 21.2495 9.80165
1 2.02441 22.063 10.6021
1 2.81811 21.2693 10.6021
1 2.78909 22.0535 9.82126
1 2.03068 21.2898 9.80993
1 3.61181 22.063 10.6021
1 4.40551 21.2693 10.6021
1 4.42236 22.076 9.79239
1 3.61829 21.3008 9.8158
1 5.19921 22.063 10.6021
1 5.99291 21.2693 10.6021
1 6.01479 22.0506 9.82315
1 5.21018 21.2601 9.80648
1 6.78661 22.063 10.6021
1 7.58031 21.2693 10.6021
1 7.57826 22.0449 9.81822
1 6.77363 21.2481 9.78973
1 8.37401 22.063 10.6021
1 9.16771 21.2693 10.6021
1 9.17309 22.0901 9.81381
1 8.36359 21.2636 9.80726
1 9.96141 22.063 10.6021
1 10.7551 21.2693 10.6021
1 10.7701 22.0515 9.82472
1 9.94281 21.2642 9.80285
1 11.5488 22.063 10.6021
1 12.3425 21.2693 10.6021
1 12.3455 22.0663 9.81415
1 11.5644 21.2863 9.80298
1 13.1362 22.063 10.6021
1 13.9299 21.2693 10.6021
1 13.9009 22.0598 9.80588
1 13.1554 21.267 9.8162
1 14.7236 22.063 10.6021
1 15.5173 21.2693 10.6021
1 15.5132 22.0595 9.81285
1 14.7093 21.2673 9.77779
1 16.311 22.063 10.6021
1 17.1047 21.2693 10.6021
1 17.1174 22.0677 9.80571
1 16.3297 21.2562 9.80353
1 17.8984 22.063 10.6021
1 18.6921 21.2693 10.6021
1 18.6952 22.0577 9.8154
1 17.8941 21.2652 9.8083
1 19.4858 22.063 10.6021
1 20.2795 21.2693 10.6021
1 20.2299 22.0573 9.80923
1 19.4735 21.2648 9.80466
1 21.0732 22.063 10.6021
1 21.8669 21.2693 10.6021
1 21.8129 22.0994 9.78043
1 21.0467 21.2853 9.80594
1 22.5 20.4756 10.6021
1 23.2937 19.6819 10.6021
1 23.3186 20.4811 9.795
1 22.5498 19.6955 9.76184
1 24.0874 20.4756 10.6021
1 24.8811 19.6819 10.6021
1 24.9065 20.4706 9.83719
1 24.1042 19.6772 9.84663
1 25.6748 20.4756 10.6021
1 26.4685 19.6819 10.6021
1 26.4701 20.4701 9.83336
1 25.7095 19.6784 9.81062
1 27.2622 20.4756 10.6021
1 28.0559 19.6819 10.6021
1 28.0549 20.4562 9.80144
1 27.2432 19.6786 9.83212
1 28.8496 20.4756 10.6021
1 29.6433 19.6819 10.6021
1 29.6335 20.4716 9.80432
1 28.8638 19.6726 9.8137
1 0.437005 20.4756 10.6021
1 1.23071 19.6819 10.6021
1 1.25351 20.4869 9.82101
1 0.449695 19.6828 9.82339
1 2.02441 20.4756 10.6021
1 2.81811 19.6819 10.6021
1 2.82318 20.4794 9.8
1 2.0506 19.6736 9.80187
1 3.61181 20.4756 10.6021
1 4.40551 19.6819 10.6021
1 4.40297 20.4704 9.82228
1 3.62036 19.6661 9.80481
1 5.19921 20.4756 10.6021
1 5.99291 19.6819 10.6021
1 5.96635 20.477 9.80598
1 5.22354 19.6868 9.8132
1 6.78661 20.4756 10.6021
1 7.58031 19.6819 10.6021
1 7.58656 20.4633 9.81521
1 6.75332 19.6839 9.78366
1 8.37401 20.4756 10.6021
1 9.16771 19.6819 10.6021
1 9.1432 20.4796 9.81727
1 8.38144 19.691 9.79645
1 9.96141 20.4756 10.6021
1 10.7551 19.6819 10.6021
1 10.7586 20.4778 9.82298
1 9.9506 19.7181 9.80209
1 11.5488 20.4756 10.6021
1 12.3425 19.6819 10.6021
1 12.342 20.4708 9.8101
1 11.5472 19.6851 9.798
1 13.1362 20.4756 10.6021
1 13.9299 19.6819 10.6021
1 13.931 20.4958 9.82277
1 13.1276 19.6891 9.81251
1 14.7236 20.4756 10.6021
1 15.5173 19.6819 10.6021
1 15.4979 20.4942 9.82982
1 14.6989 19.7058 9.80474
1 16.311 20.4756 10.6021
1 17.1047 19.6819 10.6021
1 17.1059 20.4677 9.80191
1 16.3265 19.6846 9.80902
1 17.8984 20.4756 10.6021
1 18.6921 19.6819 10.6021
1 18.6775 20.4742 9.81959
1 17.8969 19.6711 9.80073
1 19.4858 20.4756 10.6021
1 20.2795 19.6819 10.6021
1 20.2559 20.4687 9.79779
1 19.4799 19.6797 9.80604
1 21.0732 20.4756 10.6021
1 21.8669 19.6819 10.6021
1 21.7973 20.4537 9.77071
1 21.0237 19.6717 9.78343
1 22.5 18.8882 10.6021
1 23.2937 18.0945 10.6021
1 23.298 18.8946 9.82547
1 22.5491 18.1026 9.76367
1 24.0874 18.8882 10.6021
1 24.8811 18.0945 10.6021
1 24.9128 18.8918 9.7903
1 24.1027 18.0914 9.7891
1 25.6748 18.8882 10.6021
1 26.4685 18.0945 10.6021
1 26.4727 18.8666 9.85218
1 25.6776 18.1109 9.80297
1 27.2622 18.8882 10.6021
1 28.0559 18.0945 10.6021
1 28.0558 18.8822 9.80837
1 27.2654 18.0857 9.81802
1 28.8496 18.8882 10.6021
1 29.6433 18.0945 10.6021
1 29.6572 18.8742 9.81526
1 28.85 18.0836 9.81069
1 0.437005 18.8882 10.6021
1 1.23071 18.0945 10.6021
1 1.2443 18.896 9.80867
1 0.438089 18.0995 9.77902
1 2.02441 18.8882 10.6021
1 2.81811 18.0945 10.6021
1 2.82472 18.8856 9.80061
1 2.04098 18.0711 9.79925
1 3.61181 18.8882 10.6021
1 4.40551 18.0945 10.6021
1 4.42948 18.8973 9.80523
1 3.58981 18.1146 9.81536
1 5.19921 18.8882 10.6021
1 5.99291 18.0945 10.6021
1 5.98352 18.8721 9.78845
1 5.2252 18.0753 9.80054
1 6.78661 18.8882 10.6021
1 7.58031 18.0945 10.6021
1 7.61051 18.8958 9.80074
1 6.79763 18.1366 9.79086
1 8.37401 18.8882 10.6021
1 9.16771 18.0945 10.6021
1 9.17484 18.9061 9.79647
1 8.36875 18.112 9.81476
1 9.96141 18.8882 10.6021
1 10.7551 18.0945 10.6021
1 10.7443 18.888 9.8135
1 9.955 18.0991 9.80987
1 11.5488 18.8882 10.6021
1 12.3425 18.0945 10.6021
1 12.3459 18.8929 9.80119
1 11.5548 18.1187 9.81448
1 13.1362 18.8882 10.6021
1 13.9299 18.0945 10.6021
1 13.9351 18.8975 9.80087
1 13.1259 18.0875 9.81378
1 14.7236 18.8882 10.6021
1 15.5173 18.0945 10.6021
1 15.5079 18.8958 9.8292
1 14.7039 18.0848 9.82486
1 16.311 18.8882 10.6021
1 17.1047 18.0945 10.6021
1 17.0913 18.8635 9.81546
1 16.3076 18.0895 9.82816
1 17.8984 18.8882 10.6021
1 18.6921 18.0945 10.6021
1 18.6504 18.891 9.80777
1 17.8937 18.0823 9.78104
1 19.4858 18.8882 10.6021
1 20.2795 18.0945 10.6021
1 20.2492 18.8799 9.78483
1 19.4694 18.0987 9.80633
1 21.0732 18.8882 10.6021
1 21.8669 18.0945 10.6021
1 21.7831 18.8839 9.78481
1 21.0268 18.0908 9.7847
1 22.5 17.3008 10.6021
1 23.2937 16.5071 10.6021
1 23.3415 17.3054 9.80191
1 22.5573 16.5152 9.77975
1 24.0874 17.3008 10.6021
1 24.8811 16.5071 10.6021
1 24.9366 17.3026 9.83404
1 24.1252 16.5138 9.81549
1 25.6748 17.3008 10.6021
1 26.4685 16.5071 10.6021
1 26.4847 17.3236 9.79772
1 25.694 16.5022 9.79288
1 27.2622 17.3008 10.6021
1 28.0559 16.5071 10.6021
1 28.0678 17.3014 9.82089
1 27.2552 16.5236 9.81442
1 28.8496 17.3008 10.6021
1 29.6433 16.5071 10.6021
1 29.6505 17.315 9.793
1 28.8466 16.4885 9.79702
1 0.437005 17.3008 10.6021
1 1.23071 16.5071 10.6021
1 1.21498 17.2767 9.81598
1 0.423914 16.4953 9.80279
1 2.02441 17.3008 10.6021
1 2.81811 16.5071 10.6021
1 2.83983 17.3153 9.81846
1 2.03235 16.5197 9.81674
1 3.61181 17.3008 10.6021
1 4.40551 16.5071 10.6021
1 4.44526 17.3077 9.81776
1 3.62688 16.5227 9.8074
1 5.19921 17.3008 10.6021
1 5.99291 16.5071 10.6021
1 6.00337 17.3115 9.82763
1 5.21982 16.4932 9.81074
1 6.78661 17.3008 10.6021
1 7.58031 16.5071 10.6021
1 7.58573 17.3006 9.80451
1 6.80542 16.5104 9.7998
1 8.37401 17.3008 10.6021
1 9.16771 16.5071 10.6021
1 9.17415 17.2912 9.82855
1 8.37709 16.5156 9.81009
1 9.96141 17.3008 10.6021
1 10.7551 16.5071 10.6021
1 10.7321 17.3137 9.79822
1 9.96845 16.4997 9.82705
1 11.5488 17.3008 10.6021
1 12.3425 16.5071 10.6021
1 12.3306 17.2879 9.79602
1 11.5277 16.496 9.80516
1 13.1362 17.3008 10.6021
1 13.9299 16.5071 10.6021
1 13.9405 17.2536 9.81031
1 13.1306 16.487 9.791
1 14.7236 17.3008 10.6021
1 15.5173 16.5071 10.6021
1 15.5364 17.3057 9.83667
1 14.732 16.5023 9.81074
1 16.311 17.3008 10.6021
1 17.1047 16.5071 10.6021
1 17.0616 17.2906 9.82606
1 16.2953 16.5083 9.82247
1 17.8984 17.3008 10.6021
1 18.6921 16.5071 10.6021
1 18.6867 17.2925 9.843
1 17.8944 16.5185 9.79763
1 19.4858 17.3008 10.6021
1 20.2795 16.5071 10.6021
1 20.2499 17.31 9.80276
1 19.4731 16.4672 9.80726
1 21.0732 17.3008 10.6021
1 21.8669 16.5071 10.6021
1 21.8082 17.2892 9.77908
1 21.0671 16.5128 9.80321
1 22.5 15.7134 10.6021
1 23.2937 14.9197 10.6021
1 23.3402 15.7208 9.81948
1 22.5752 14.9227 9.80252
1 24.0874 15.7134 10.6021
1 24.8811 14.9197 10.6021
1 24.8905 15.7307 9.79599
1 24.1027 14.9226 9.82135
1 25.6748 15.7134 10.6021
1 26.4685 14.9197 10.6021
1 26.4853 15.7242 9.81686
1 25.6597 14.8958 9.81071
1 27.2622 15.7134 10.6021
1 28.0559 14.9197 10.6021
1 28.0575 15.7097 9.81468
1 27.2845 14.9249 9.81741
1 28.8496 15.7134 10.6021
1 29.6433 14.9197 10.6021
1 29.65 15.7173 9.8171
1 28.8496 14.9253 9.84008
1 0.437005 15.7134 10.6021
1 1.23071 14.9197 10.6021
1 1.22857 15.721 9.80997
1 0.444972 14.8931 9.81597
1 2.02441 15.7134 10.6021
1 2.81811 14.9197 10.6021
1 2.81005 15.7021 9.83675
1 2.02061 14.9049 9.81816
1 3.61181 15.7134 10.6021
1 4.40551 14.9197 10.6021
1 4.43554 15.7351 9.81685
1 3.63651 14.9534 9.81686
1 5.19921 15.7134 10.6021
1 5.99291 14.9197 10.6021
1 6.01136 15.7239 9.80127
1 5.21115 14.9269 9.80729
1 6.78661 15.7134 10.6021
1 7.58031 14.9197 10.6021
1 7.57561 15.6924 9.78963
1 6.78947 14.9182 9.80779
1 8.37401 15.7134 10.6021
1 9.16771 14.9197 10.6021
1 9.15662 15.6837 9.82458
1 8.37929 14.9128 9.83213
1 9.96141 15.7134 10.6021
1 10.7551 14.9197 10.6021
1 10.7713 15.7133 9.82008
1 9.9579 14.8857 9.80151
1 11.5488 15.7134 10.6021
1 12.3425 14.9197 10.6021
1 12.3379 15.705 9.80066
1 11.5644 14.9185 9.81037
1 13.1362 15.7134 10.6021
1 13.9299 14.9197 10.6021
1 13.9394 15.7089 9.80915
1 13.1404 14.9226 9.81341
1 14.7236 15.7134 10.6021
1 15.5173 14.9197 10.6021
1 15.5153 15.6943 9.81011
1 14.7391 14.9166 9.81847
1 16.311 15.7134 10.6021
1 17.1047 14.9197 10.6021
1 17.0982 15.7092 9.81529
1 16.3386 14.9304 9.812
1 17.8984 15.7134 10.6021
1 18.6921 14.9197 10.6021
1 18.6561 15.7149 9.79346
1 17.8946 14.9471 9.81457
1 19.4858 15.7134 10.6021
1 20.2795 14.9197 10.6021
1 20.2545 15.6962 9.8122
1 19.4324 14.9254 9.80999
1 21.0732 15.7134 10.6021
1 21.8669 14.9197 10.6021
1 21.7907 15.7226 9.78681
1 21.0412 14.9249 9.81038
1 22.5 14.126 10.6021
1 23.2937 13.3323 10.6021
1 23.3106 14.1294 9.78914
1 22.5457 13.3357 9.76267
1 24.0874 14.126 10.6021
1 24.8811 13.3323 10.6021
1 24.8933 14.0911 9.79549
1 24.1066 13.3255 9.83007
1 25.6748 14.126 10.6021
1 26.4685 13.3323 10.6021
1 26.4487 14.1326 9.82825
1 25.6696 13.3325 9.80363
1 27.2622 14.126 10.6021
1 28.0559 13.3323 10.6021
1 28.0439 14.1267 9.79253
1 27.2444 13.3422 9.78435
1 28.8496 14.126 10.6021
1 29.6433 13.3323 10.6021
1 29.6361 14.1208 9.79919
1 28.827 13.3491 9.80417
1 0.437005 14.126 10.6021
1 1.23071 13.3323 10.6021
1 1.25706 14.1264 9.78856
1 0.451099 13.3427 9.79084
1 2.02441 14.126 10.6021
1 2.81811 13.3323 10.6021
1 2.83189 14.132 9.79753
1 2.02594 13.3507 9.80544
1 3.61181 14.126 10.6021
1 4.40551 13.3323 10.6021
1 4.4022 14.1459 9.81034
1 3.63773 13.3453 9.79903
1 5.19921 14.126 10.6021
1 5.99291 13.3323 10.6021
1 5.96969 14.1313 9.8246
1 5.2133 13.352 9.82741
1 6.78661 14.126 10.6021
1 7.58031 13.3323 10.6021
1 7.56405 14.1345 9.80306
1 6.79731 13.3268 9.82132
1 8.37401 14.126 10.6021
1 9.16771 13.3323 10.6021
1 9.16364 14.1288 9.83605
1 8.37887 13.3479 9.81811
1 9.96141 14.126 10.6021
1 10.7551 13.3323 10.6021
1 10.739 14.1401 9.80707
1 9.97809 13.3495 9.78386
1 11.5488 14.126 10.6021
1 12.3425 13.3323 10.6021
1 12.3457 14.1229 9.78225
1 11.5412 13.343 9.79597
1 13.1362 14.126 10.6021
1 13.9299 13.3323 10.6021
1 13.9169 14.1354 9.80602
1 13.1332 13.3246 9.79182
1 14.7236 14.126 10.6021
1 15.5173 13.3323 10.6021
1 15.5423 14.1099 9.80637
1 14.6998 13.3199 9.80335
1 16.311 14.126 10.6021
1 17.1047 13.3323 10.6021
1 17.0919 14.1477 9.8027
1 16.3112 13.3209 9.78471
1 17.8984 14.126 10.6021
1 18.6921 13.3323 10.6021
1 18.675 14.1267 9.80209
1 17.9095 13.3379 9.79235
1 19.4858 14.126 10.6021
1 20.2795 13.3323 10.6021
1 20.2551 14.131 9.80972
1 19.4684 13.3574 9.79888
1 21.0732 14.126 10.6021
1 21.8669 13.3323 10.6021
1 21.8189 14.1245 9.75802
1 21.0433 13.3388 9.79899
1 22.5 12.5386 10.6021
1 23.2937 11.7449 10.6021
1 23.3162 12.5293 9.81671
1 22.5738 11.7507 9.77055
1 24.0874 12.5386 10.6021
1 24.8811 11.7449 10.6021
1 24.8956 12.5404 9.79362
1 24.0845 11.7412 9.80233
1 25.6748 12.5386 10.6021
1 26.4685 11.7449 10.6021
1 26.4609 12.542 9.80852
1 25.6609 11.7271 9.79815
1 27.2622 12.5386 10.6021
1 28.0559 11.7449 10.6021
1 28.0407 12.5434 9.80133
1 27.2524 11.7417 9.80593
1 28.8496 12.5386 10.6021
1 29.6433 11.7449 10.6021
1 29.6647 12.5232 9.81496
1 28.8639 11.7502 9.81272
1 0.437005 12.5386 10.6021
1 1.23071 11.7449 10.6021
1 1.2172 12.5694 9.80203
1 0.431022 11.7374 9.78168
1 2.02441 12.5386 10.6021
1 2.81811 11.7449 10.6021
1 2.82535 12.5501 9.82475
1 2.01625 11.7366 9.83307
1 3.61181 12.5386 10.6021
1 4.40551 11.7449 10.6021
1 4.39507 12.5477 9.80961
1 3.61888 11.7227 9.82749
1 5.19921 12.5386 10.6021
1 5.99291 11.7449 10.6021
1 5.96797 12.5345 9.80575
1 5.19273 11.7431 9.81925
1 6.78661 12.5386 10.6021
1 7.58031 11.7449 10.6021
1 7.57347 12.5317 9.78754
1 6.76626 11.7526 9.81979
1 8.37401 12.5386 10.6021
1 9.16771 11.7449 10.6021
1 9.16219 12.5558 9.79491
1 8.36971 11.7628 9.80998
1 9.96141 12.5386 10.6021
1 10.7551 11.7449 10.6021
1 10.7692 12.5401 9.79503
1 9.97565 11.7577 9.80069
1 11.5488 12.5386 10.6021
1 12.3425 11.7449 10.6021
1 12.3512 12.535 9.80067
1 11.5399 11.7425 9.80063
1 13.1362 12.5386 10.6021
1 13.9299 11.7449 10.6021
1 13.9191 12.5222 9.81224
1 13.1489 11.7496 9.82428
1 14.7236 12.5386 10.6021
1 15.5173 11.7449 10.6021
1 15.5212 12.5505 9.78555
1 14.7304 11.749 9.81652
1 16.311 12.5386 10.6021
1 17.1047 11.7449 10.6021
1 17.0897 12.5619 9.82813
1 16.3398 11.7427 9.8147
1 17.8984 12.5386 10.6021
1 18.6921 11.7449 10.6021
1 18.6841 12.563 9.80383
1 17.9033 11.7518 9.82723
1 19.4858 12.5386 10.6021
1 20.2795 11.7449 10.6021
1 20.2826 12.5485 9.79224
1 19.4696 11.7417 9.81041
1 21.0732 12.5386 10.6021
1 21.8669 11.7449 10.6021
1 21.8014 12.5483 9.77639
1 21.0827 11.7416 9.79441
1 22.5 10.9512 10.6021
1 23.2937 10.1575 10.6021
1 23.3032 10.966 9.78655
1 22.5748 10.151 9.74576
1 24.0874 10.9512 10.6021
1 24.8811 10.1575 10.6021
1 24.8788 10.9137 9.80755
1 24.093 10.1401 9.80891
1 25.6748 10.9512 10.6021
1 26.4685 10.1575 10.6021
1 26.468 10.9353 9.77988
1 25.6879 10.1563 9.78756
1 27.2622 10.9512 10.6021
1 28.0559 10.1575 10.6021
1 28.059 10.952 9.82503
1 27.2797 10.1684 9.81636
1 28.8496 10.9512 10.6021
1 29.6433 10.1575 10.6021
1 29.6343 10.9615 9.81895
1 28.8536 10.1722 9.82363
1 0.437005 10.9512 10.6021
1 1.23071 10.1575 10.6021
1 1.21534 10.9419 9.80074
1 0.436877 10.168 9.83645
1 2.02441 10.9512 10.6021
1 2.81811 10.1575 10.6021
1 2.7835 10.9509 9.83238
1 2.01758 10.1684 9.8091
1 3.61181 10.9512 10.6021
1 4.40551 10.1575 10.6021
1 4.39558 10.9231 9.80934
1 3.62393 10.1845 9.79689
1 5.19921 10.9512 10.6021
1 5.99291 10.1575 10.6021
1 5.98693 10.9605 9.78617
1 5.19683 10.1514 9.7889
1 6.78661 10.9512 10.6021
1 7.58031 10.1575 10.6021
1 7.60668 10.9297 9.83123
1 6.78017 10.1455 9.79932
1 8.37401 10.9512 10.6021
1 9.16771 10.1575 10.6021
1 9.16779 10.9529 9.79381
1 8.3929 10.1475 9.80041
1 9.96141 10.9512 10.6021
1 10.7551 10.1575 10.6021
1 10.7386 10.9427 9.80765
1 9.97799 10.1718 9.78593
1 11.5488 10.9512 10.6021
1 12.3425 10.1575 10.6021
1 12.3467 10.9613 9.82316
1 11.5516 10.1628 9.79814
1 13.1362 10.9512 10.6021
1 13.9299 10.1575 10.6021
1 13.9278 10.9341 9.80275
1 13.1303 10.1245 9.7972
1 14.7236 10.9512 10.6021
1 15.5173 10.1575 10.6021
1 15.5233 10.9423 9.77366
1 14.7393 10.1564 9.82489
1 16.311 10.9512 10.6021
1 17.1047 10.1575 10.6021
1 17.121 10.953 9.82355
1 16.2969 10.1721 9.80242
1 17.8984 10.9512 10.6021
1 18.6921 10.1575 10.6021
1 18.7151 10.9449 9.82442
1 17.8845 10.1329 9.81659
1 19.4858 10.9512 10.6021
1 20.2795 10.1575 10.6021
1 20.2474 10.9494 9.81878
1 19.4808 10.1432 9.78473
1 21.0732 10.9512 10.6021
1 21.8669 10.1575 10.6021
1 21.8112 10.9436 9.77763
1 21.0293 10.1621 9.80128
1 22.5 9.36379 10.6021
1 23.2937 8.57009 10.6021
1 23.3181 9.35565 9.77843
1 22.5832 8.56774 9.77668
1 24.0874 9.36379 10.6021
1 24.8811 8.57009 10.6021
1 24.8921 9.34363 9.82155
1 24.1006 8.54268 9.81831
1 25.6748 9.36379 10.6021
1 26.4685 8.57009 10.6021
1 26.4934 9.37809 9.81726
1 25.6999 8.56389 9.80339
1 27.2622 9.36379 10.6021
1 28.0559 8.57009 10.6021
1 28.0561 9.35822 9.82038
1 27.2918 8.57326 9.81211
1 28.8496 9.36379 10.6021
1 29.6433 8.57009 10.6021
1 29.6237 9.35921 9.80003
1 28.8315 8.54381 9.81876
1 0.437005 9.36379 10.6021
1 1.23071 8.57009 10.6021
1 1.2342 9.37043 9.81647
1 0.419894 8.56853 9.8077
1 2.02441 9.36379 10.6021
1 2.81811 8.57009 10.6021
1 2.82259 9.38102 9.83589
1 2.03691 8.57905 9.8028
1 3.61181 9.36379 10.6021
1 4.40551 8.57009 10.6021
1 4.41705 9.37168 9.81788
1 3.60997 8.59581 9.80245
1 5.19921 9.36379 10.6021
1 5.99291 8.57009 10.6021
1 5.99146 9.36638 9.80624
1 5.21846 8.5835 9.80761
1 6.78661 9.36379 10.6021
1 7.58031 8.57009 10.6021
1 7.57672 9.36901 9.81013
1 6.77863 8.57223 9.82578
1 8.37401 9.36379 10.6021
1 9.16771 8.57009 10.6021
1 9.14932 9.35317 9.81488
1 8.38198 8.59922 9.82147
1 9.96141 9.36379 10.6021
1 10.7551 8.57009 10.6021
1 10.7653 9.34278 9.80504
1 9.96506 8.55703 9.82951
1 11.5488 9.36379 10.6021
1 12.3425 8.57009 10.6021
1 12.3327 9.36397 9.81011
1 11.557 8.5712 9.81333
1 13.1362 9.36379 10.6021
1 13.9299 8.57009 10.6021
1 13.9331 9.3666 9.80715
1 13.1369 8.58282 9.79185
1 14.7236 9.36379 10.6021
1 15.5173 8.57009 10.6021
1 15.5239 9.39679 9.81401
1 14.7212 8.59174 9.83984
1 16.311 9.36379 10.6021
1 17.1047 8.57009 10.6021
1 17.0647 9.35187 9.82192
1 16.3187 8.56834 9.8091
1 17.8984 9.36379 10.6021
1 18.6921 8.57009 10.6021
1 18.6589 9.38086 9.83982
1 17.895 8.55113 9.79332
1 19.4858 9.36379 10.6021
1 20.2795 8.57009 10.6021
1 20.2345 9.3798 9.80726
1 19.4463 8.5468 9.81186
1 21.0732 9.36379 10.6021
1 21.8669 8.57009 10.6021
1 21.8117 9.35499 9.75385
1 21.0542 8.56382 9.81541
1 22.5 7.77639 10.6021
1 23.2937 6.98268 10.6021
1 23.3541 7.76696 9.79085
1 22.586 7.00065 9.80735
1 24.0874 7.77639 10.6021
1 24.8811 6.98268 10.6021
1 24.9139 7.79106 9.81138
1 24.1195 6.95856 9.77746
1 25.6748 7.77639 10.6021
1 26.4685 6.98268 10.6021
1 26.4879 7.77191 9.8197
1 25.6783 6.97447 9.79364
1 27.2622 7.77639 10.6021
1 28.0559 6.98268 10.6021
1 28.0615 7.78523 9.79458
1 27.2746 7.00074 9.81394
1 28.8496 7.77639 10.6021
1 29.6433 6.98268 10.6021
1 29.6357 7.76917 9.82631
1 28.8536 6.98168 9.79994
1 0.437005 7.77639 10.6021
1 1.23071 6.98268 10.6021
1 1.24118 7.79351 9.81942
1 0.435648 6.98264 9.81234
1 2.02441 7.77639 10.6021
1 2.81811 6.98268 10.6021
1 2.8226 7.7774 9.82461
1 1.99134 6.98795 9.84211
1 3.61181 7.77639 10.6021
1 4.40551 6.98268 10.6021
1 4.42344 7.78663 9.80721
1 3.61684 7.0064 9.82224
1 5.19921 7.77639 10.6021
1 5.99291 6.98268 10.6021
1 5.9868 7.77621 9.79731
1 5.2028 6.99691 9.80408
1 6.78661 7.77639 10.6021
1 7.58031 6.98268 10.6021
1 7.60154 7.79095 9.83914
1 6.79071 7.01026 9.80012
1 8.37401 7.77639 10.6021
1 9.16771 6.98268 10.6021
1 9.16081 7.779 9.79646
1 8.36111 6.97814 9.80665
1 9.96141 7.77639 10.6021
1 10.7551 6.98268 10.6021
1 10.7591 7.78332 9.82191
1 9.9691 7.0117 9.79871
1 11.5488 7.77639 10.6021
1 12.3425 6.98268 10.6021
1 12.3498 7.74767 9.80781
1 11.5543 6.98473 9.83078
1 13.1362 7.77639 10.6021
1 13.9299 6.98268 10.6021
1 13.9152 7.79285 9.81944
1 13.1644 7.00055 9.83178
1 14.7236 7.77639 10.6021
1 15.5173 6.98268 10.6021
1 15.5287 7.80367 9.78883
1 14.711 6.98418 9.82812
1 16.311 7.77639 10.6021
1 17.1047 6.98268 10.6021
1 17.0937 7.76821 9.81547
1 16.2842 6.95948 9.82873
1 17.8984 7.77639 10.6021
1 18.6921 6.98268 10.6021
1 18.6921 7.76439 9.81825
1 17.8905 6.9856 9.84152
1 19.4858 7.77639 10.6021
1 20.2795 6.98268 10.6021
1 20.2597 7.80492 9.80566
1 19.4419 6.95417 9.78712
1 21.0732 7.77639 10.6021
1 21.8669 6.98268 10.6021
1 21.8191 7.78562 9.77935
1 21.0537 6.98596 9.8059
1 22.5 6.18898 10.6021
1 23.2937 5.39528 10.6021
1 23.3218 6.20503 9.80312
1 22.5443 5.39516 9.77918
1 24.0874 6.18898 10.6021
1 24.8811 5.39528 10.6021
1 24.909 6.18383 9.80414
1 24.1184 5.41572 9.79385
1 25.6748 6.18898 10.6021
1 26.4685 5.39528 10.6021
1 26.465 6.20768 9.8051
1 25.6829 5.41061 9.81405
1 27.2622 6.18898 10.6021
1 28.0559 5.39528 10.6021
1 28.0732 6.18877 9.8075
1 27.2697 5.42023 9.77913
1 28.8496 6.18898 10.6021
1 29.6433 5.39528 10.6021
1 29.6459 6.1793 9.79323