9376
Atoms. Timestep: 4000000
1 15 3.55271e-15 10.5996
1 15.7937 29.2063 10.5996
1 15.8479 29.9124 9.75128
1 15.0608 29.1628 9.76662
1 16.5874 3.55271e-15 10.5996
1 17.3811 29.2063 10.5996
1 17.3721 29.8993 9.78046
1 16.6038 29.1601 9.81226
1 18.1748 3.55271e-15 10.5996
1 18.9685 29.2063 10.5996
1 18.9662 29.9358 9.76834
1 18.1982 29.1476 9.81843
1 19.7622 3.55271e-15 10.5996
1 20.5559 29.2063 10.5996
1 20.569 29.9231 9.77419
1 19.7553 29.1624 9.80696
1 21.3496 3.55271e-15 10.5996
1 22.1433 29.2063 10.5996
1 22.1557 29.9476 9.7994
1 21.3867 29.1821 9.77763
1 22.937 3.55271e-15 10.5996
1 23.7307 29.2063 10.5996
1 23.7228 29.9174 9.78676
1 22.9476 29.1605 9.80462
1 24.5244 3.55271e-15 10.5996
1 25.3181 29.2063 10.5996
1 25.3004 29.9278 9.78151
1 24.5375 29.1691 9.77402
1 26.1118 3.55271e-15 10.5996
1 26.9055 29.2063 10.5996
1 26.8715 29.9377 9.76949
1 26.1011 29.1744 9.81723
1 27.6992 3.55271e-15 10.5996
1 28.4929 29.2063 10.5996
1 28.5032 29.9204 9.7514
1 27.6909 29.1661 9.81521
1 29.2866 3.55271e-15 10.5996
1 0.08031 29.2063 10.5996
1 0.0898166 29.9532 9.78671
1 29.2871 29.1967 9.7916
1 0.874011 3.55271e-15 10.5996
1 1.66771 29.2063 10.5996
1 1.68552 29.9448 9.78195
1 0.869378 29.218 9.81173
1 2.46141 3.55271e-15 10.5996
1 3.25511 29.2063 10.5996
1 3.2515 29.9305 9.77874
1 2.47657 29.1748 9.80668
1 4.04881 3.55271e-15 10.5996
1 4.84251 29.2063 10.5996
1 4.83726 29.939 9.77168
1 4.03896 29.1944 9.80267
1 5.63621 3.55271e-15 10.5996
1 6.42991 29.2063 10.5996
1 6.42155 29.9459 9.79499
1 5.65123 29.1836 9.81327
1 7.22361 3.55271e-15 10.5996
1 8.01732 29.2063 10.5996
1 8.0118 29.9346 9.78879
1 7.22235 29.1637 9.82858
1 8.81102 3.55271e-15 10.5996
1 9.60472 29.2063 10.5996
1 9.58855 29.9246 9.76891
1 8.79188 29.1602 9.81107
1 10.3984 3.55271e-15 10.5996
1 11.1921 29.2063 10.5996
1 11.1844 29.9185 9.77781
1 10.4071 29.2013 9.79993
1 11.9858 3.55271e-15 10.5996
1 12.7795 29.2063 10.5996
1 12.7627 29.9503 9.75187
1 11.9752 29.1837 9.78095
1 13.5732 3.55271e-15 10.5996
1 14.3669 29.2063 10.5996
1 14.2835 29.9067 9.74121
1 13.5286 29.1945 9.7966
1 15 28.4126 10.5996
1 15.7937 27.6189 10.5996
1 15.7947 28.3891 9.81655
1 15.0563 27.5902 9.75463
1 16.5874 28.4126 10.5996
1 17.3811 27.6189 10.5996
1 17.3848 28.3905 9.80512
1 16.5923 27.6078 9.81299
1 18.1748 28.4126 10.5996
1 18.9685 27.6189 10.5996
1 18.9672 28.3747 9.79119
1 18.1652 27.5785 9.80222
1 19.7622 28.4126 10.5996
1 20.5559 27.6189 10.5996
1 20.5551 28.3951 9.79331
1 19.7584 27.5812 9.78861
1 21.3496 28.4126 10.5996
1 22.1433 27.6189 10.5996
1 22.1511 28.395 9.80991
1 21.3423 27.5926 9.78616
1 22.937 28.4126 10.5996
1 23.7307 27.6189 10.5996
1 23.741 28.4018 9.8072
1 22.9425 27.6134 9.81604
1 24.5244 28.4126 10.5996
1 25.3181 27.6189 10.5996
1 25.3308 28.3979 9.83414
1 24.5368 27.5984 9.81047
1 26.1118 28.4126 10.5996
1 26.9055 27.6189 10.5996
1 26.9286 28.3871 9.80686
1 26.1295 27.6206 9.81002
1 27.6992 28.4126 10.5996
1 28.4929 27.6189 10.5996
1 28.5081 28.4007 9.80967
1 27.7118 27.6182 9.80108
1 29.2866 28.4126 10.5996
1 0.08031 27.6189 10.5996
1 0.0733792 28.4202 9.79534
1 29.302 27.6087 9.80297
1 0.874011 28.4126 10.5996
1 1.66771 27.6189 10.5996
1 1.67701 28.4177 9.82193
1 0.877353 27.6069 9.7962
1 2.46141 28.4126 10.5996
1 3.25511 27.6189 10.5996
1 3.28137 28.3925 9.81219
1 2.45449 27.6256 9.80923
1 4.04881 28.4126 10.5996
1 4.84251 27.6189 10.5996
1 4.8509 28.3805 9.83201
1 4.07126 27.596 9.80864
1 5.63621 28.4126 10.5996
1 6.42991 27.6189 10.5996
1 6.40882 28.399 9.81483
1 5.62754 27.6024 9.77608
1 7.22361 28.4126 10.5996
1 8.01732 27.6189 10.5996
1 7.97995 28.3721 9.79952
1 7.19953 27.5846 9.80874
1 8.81102 28.4126 10.5996
1 9.60472 27.6189 10.5996
1 9.61105 28.413 9.80822
1 8.81577 27.5915 9.81292
1 10.3984 28.4126 10.5996
1 11.1921 27.6189 10.5996
1 11.2014 28.3911 9.78483
1 10.4054 27.6107 9.78778
1 11.9858 28.4126 10.5996
1 12.7795 27.6189 10.5996
1 12.7564 28.3922 9.79643
1 11.9556 27.5776 9.79597
1 13.5732 28.4126 10.5996
1 14.3669 27.6189 10.5996
1 14.2954 28.3997 9.76613
1 13.5427 27.606 9.78761
1 15 26.8252 10.5996
1 15.7937 26.0315 10.5996
1 15.8157 26.8221 9.75439
1 15.0818 26.0336 9.76179
1 16.5874 26.8252 10.5996
1 17.3811 26.0315 10.5996
1 17.395 26.7986 9.83201
1 16.5882 26.0013 9.82612
1 18.1748 26.8252 10.5996
1 18.9685 26.0315 10.5996
1 18.9632 26.8059 9.78792
1 18.2023 25.9908 9.78868
1 19.7622 26.8252 10.5996
1 20.5559 26.0315 10.5996
1 20.5642 26.8087 9.80254
1 19.7652 26.02 9.81646
1 21.3496 26.8252 10.5996
1 22.1433 26.0315 10.5996
1 22.1535 26.8307 9.7917
1 21.3709 26.0342 9.81979
1 22.937 26.8252 10.5996
1 23.7307 26.0315 10.5996
1 23.7308 26.8181 9.80283
1 22.9436 26.0314 9.78784
1 24.5244 26.8252 10.5996
1 25.3181 26.0315 10.5996
1 25.3226 26.814 9.80308
1 24.5303 26.0359 9.78764
1 26.1118 26.8252 10.5996
1 26.9055 26.0315 10.5996
1 26.9321 26.8033 9.80564
1 26.1412 26.0298 9.79995
1 27.6992 26.8252 10.5996
1 28.4929 26.0315 10.5996
1 28.4951 26.8037 9.80399
1 27.708 26.0289 9.81274
1 29.2866 26.8252 10.5996
1 0.08031 26.0315 10.5996
1 0.0870952 26.8245 9.812
1 29.2942 26.0334 9.80984
1 0.874011 26.8252 10.5996
1 1.66771 26.0315 10.5996
1 1.65518 26.8366 9.81255
1 0.871719 26.0275 9.79276
1 2.46141 26.8252 10.5996
1 3.25511 26.0315 10.5996
1 3.24854 26.8415 9.80402
1 2.47066 26.0603 9.80082
1 4.04881 26.8252 10.5996
1 4.84251 26.0315 10.5996
1 4.85056 26.7997 9.80233
1 4.04922 26.0324 9.79146
1 5.63621 26.8252 10.5996
1 6.42991 26.0315 10.5996
1 6.41849 26.8115 9.78928
1 5.65233 26.0384 9.78044
1 7.22361 26.8252 10.5996
1 8.01732 26.0315 10.5996
1 8.01788 26.8289 9.80955
1 7.23519 26.0512 9.83452
1 8.81102 26.8252 10.5996
1 9.60472 26.0315 10.5996
1 9.61335 26.8144 9.82733
1 8.80908 26.0091 9.82721
1 10.3984 26.8252 10.5996
1 11.1921 26.0315 10.5996
1 11.1824 26.8181 9.81637
1 10.408 26.0258 9.81863
1 11.9858 26.8252 10.5996
1 12.7795 26.0315 10.5996
1 12.7628 26.8094 9.80128
1 11.9468 26.0079 9.7798
1 13.5732 26.8252 10.5996
1 14.3669 26.0315 10.5996
1 14.2908 26.8086 9.78955
1 13.5401 26.0268 9.77688
1 15 25.2378 10.5996
1 15.7937 24.4441 10.5996
1 15.8242 25.2158 9.79998
1 15.0579 24.4484 9.77356
1 16.5874 25.2378 10.5996
1 17.3811 24.4441 10.5996
1 17.3791 25.2331 9.79006
1 16.6013 24.4235 9.79209
1 18.1748 25.2378 10.5996
1 18.9685 24.4441 10.5996
1 18.9823 25.217 9.78766
1 18.1924 24.4307 9.79177
1 19.7622 25.2378 10.5996
1 20.5559 24.4441 10.5996
1 20.5514 25.2312 9.81113
1 19.7558 24.4417 9.81
1 21.3496 25.2378 10.5996
1 22.1433 24.4441 10.5996
1 22.1691 25.2263 9.8239
1 21.3528 24.4385 9.8015
1 22.937 25.2378 10.5996
1 23.7307 24.4441 10.5996
1 23.7406 25.2269 9.78985
1 22.9265 24.4178 9.80507
1 24.5244 25.2378 10.5996
1 25.3181 24.4441 10.5996
1 25.3404 25.2402 9.81278
1 24.5252 24.4142 9.79818
1 26.1118 25.2378 10.5996
1 26.9055 24.4441 10.5996
1 26.9188 25.2486 9.78949
1 26.1256 24.4496 9.81739
1 27.6992 25.2378 10.5996
1 28.4929 24.4441 10.5996
1 28.4942 25.212 9.80397
1 27.6896 24.4455 9.8014
1 29.2866 25.2378 10.5996
1 0.08031 24.4441 10.5996
1 0.0767143 25.2249 9.8061
1 29.3019 24.4221 9.83867
1 0.874011 25.2378 10.5996
1 1.66771 24.4441 10.5996
1 1.65624 25.2455 9.80859
1 0.880197 24.428 9.79556
1 2.46141 25.2378 10.5996
1 3.25511 24.4441 10.5996
1 3.24314 25.231 9.82532
1 2.4397 24.4432 9.78161
1 4.04881 25.2378 10.5996
1 4.84251 24.4441 10.5996
1 4.83287 25.2602 9.82569
1 4.01378 24.4387 9.81413
1 5.63621 25.2378 10.5996
1 6.42991 24.4441 10.5996
1 6.46523 25.2505 9.80189
1 5.62744 24.4604 9.8039
1 7.22361 25.2378 10.5996
1 8.01732 24.4441 10.5996
1 7.99637 25.2229 9.79433
1 7.21374 24.4549 9.80434
1 8.81102 25.2378 10.5996
1 9.60472 24.4441 10.5996
1 9.62013 25.237 9.82058
1 8.80221 24.4395 9.80805
1 10.3984 25.2378 10.5996
1 11.1921 24.4441 10.5996
1 11.1833 25.2279 9.82258
1 10.3561 24.4328 9.81819
1 11.9858 25.2378 10.5996
1 12.7795 24.4441 10.5996
1 12.7773 25.2599 9.80292
1 11.9759 24.4375 9.7914
1 13.5732 25.2378 10.5996
1 14.3669 24.4441 10.5996
1 14.313 25.2372 9.77483
1 13.5351 24.4459 9.76542
1 15 23.6504 10.5996
1 15.7937 22.8567 10.5996
1 15.7924 23.6696 9.77578
1 15.0769 22.858 9.78828
1 16.5874 23.6504 10.5996
1 17.3811 22.8567 10.5996
1 17.3844 23.6629 9.80236
1 16.6044 22.8631 9.81688
1 18.1748 23.6504 10.5996
1 18.9685 22.8567 10.5996
1 18.9958 23.6342 9.82211
1 18.1722 22.8469 9.8108
1 19.7622 23.6504 10.5996
1 20.5559 22.8567 10.5996
1 20.5316 23.6313 9.8007
1 19.7697 22.8541 9.80965
1 21.3496 23.6504 10.5996
1 22.1433 22.8567 10.5996
1 22.1275 23.6414 9.79502
1 21.3362 22.8617 9.80866
1 22.937 23.6504 10.5996
1 23.7307 22.8567 10.5996
1 23.7414 23.654 9.78302
1 22.9165 22.8367 9.81431
1 24.5244 23.6504 10.5996
1 25.3181 22.8567 10.5996
1 25.2966 23.6423 9.80352
1 24.5257 22.8296 9.81361
1 26.1118 23.6504 10.5996
1 26.9055 22.8567 10.5996
1 26.9207 23.6821 9.79818
1 26.1284 22.8381 9.80831
1 27.6992 23.6504 10.5996
1 28.4929 22.8567 10.5996
1 28.4904 23.6295 9.82324
1 27.6825 22.842 9.81234
1 29.2866 23.6504 10.5996
1 0.08031 22.8567 10.5996
1 0.0742333 23.652 9.80361
1 29.2692 22.8433 9.80233
1 0.874011 23.6504 10.5996
1 1.66771 22.8567 10.5996
1 1.6807 23.6498 9.82033
1 0.879299 22.8726 9.79272
1 2.46141 23.6504 10.5996
1 3.25511 22.8567 10.5996
1 3.24344 23.6399 9.81981
1 2.46224 22.8479 9.82663
1 4.04881 23.6504 10.5996
1 4.84251 22.8567 10.5996
1 4.81335 23.6679 9.7778
1 4.02299 22.8803 9.82064
1 5.63621 23.6504 10.5996
1 6.42991 22.8567 10.5996
1 6.4394 23.6625 9.79896
1 5.62313 22.8434 9.82507
1 7.22361 23.6504 10.5996
1 8.01732 22.8567 10.5996
1 7.99253 23.6497 9.79331
1 7.21407 22.8515 9.81977
1 8.81102 23.6504 10.5996
1 9.60472 22.8567 10.5996
1 9.58395 23.6337 9.80208
1 8.80744 22.8482 9.80572
1 10.3984 23.6504 10.5996
1 11.1921 22.8567 10.5996
1 11.1581 23.6698 9.82924
1 10.3834 22.8458 9.8265
1 11.9858 23.6504 10.5996
1 12.7795 22.8567 10.5996
1 12.7601 23.65 9.79668
1 11.9519 22.8963 9.80132
1 13.5732 23.6504 10.5996
1 14.3669 22.8567 10.5996
1 14.2994 23.6529 9.77311
1 13.5718 22.8503 9.78695
1 15 22.063 10.5996
1 15.7937 21.2693 10.5996
1 15.8175 22.0339 9.8258
1 15.0721 21.267 9.7929
1 16.5874 22.063 10.5996
1 17.3811 21.2693 10.5996
1 17.3888 22.0641 9.80326
1 16.587 21.2642 9.80545
1 18.1748 22.063 10.5996
1 18.9685 21.2693 10.5996
1 18.9677 22.0615 9.79342
1 18.1607 21.2484 9.83888
1 19.7622 22.063 10.5996
1 20.5559 21.2693 10.5996
1 20.5686 22.0551 9.80748
1 19.775 21.259 9.82769
1 21.3496 22.063 10.5996
1 22.1433 21.2693 10.5996
1 22.1292 22.0862 9.80498
1 21.3372 21.2513 9.81656
1 22.937 22.063 10.5996
1 23.7307 21.2693 10.5996
1 23.7404 22.0747 9.80053
1 22.9506 21.2786 9.82449
1 24.5244 22.063 10.5996
1 25.3181 21.2693 10.5996
1 25.3514 22.0904 9.8038
1 24.5527 21.2893 9.81012
1 26.1118 22.063 10.5996
1 26.9055 21.2693 10.5996
1 26.8746 22.0465 9.80889
1 26.1143 21.2649 9.80373
1 27.6992 22.063 10.5996
1 28.4929 21.2693 10.5996
1 28.5024 22.0453 9.81474
1 27.7033 21.2627 9.77242
1 29.2866 22.063 10.5996
1 0.08031 21.2693 10.5996
1 0.0793634 22.0649 9.82599
1 29.2814 21.2725 9.82391
1 0.874011 22.063 10.5996
1 1.66771 21.2693 10.5996
1 1.64775 22.0681 9.7984
1 0.884806 21.2901 9.81167
1 2.46141 22.063 10.5996
1 3.25511 21.2693 10.5996
1 3.26099 22.0714 9.81666
1 2.45001 21.286 9.80167
1 4.04881 22.063 10.5996
1 4.84251 21.2693 10.5996
1 4.83879 22.0611 9.8145
1 4.01585 21.2806 9.79298
1 5.63621 22.063 10.5996
1 6.42991 21.2693 10.5996
1 6.4107 22.0604 9.80942
1 5.63944 21.2527 9.79253
1 7.22361 22.063 10.5996
1 8.01732 21.2693 10.5996
1 7.99351 22.0579 9.79397
1 7.22324 21.2455 9.80695
1 8.81102 22.063 10.5996
1 9.60472 21.2693 10.5996
1 9.58268 22.0393 9.80999
1 8.76125 21.2515 9.79326
1 10.3984 22.063 10.5996
1 11.1921 21.2693 10.5996
1 11.1667 22.0636 9.82867
1 10.3885 21.2662 9.81802
1 11.9858 22.063 10.5996
1 12.7795 21.2693 10.5996
1 12.7596 22.0602 9.78166
1 11.9882 21.2531 9.78622
1 13.5732 22.063 10.5996
1 14.3669 21.2693 10.5996
1 14.282 22.0634 9.78395
1 13.5267 21.2727 9.8161
1 15 20.4756 10.5996
1 15.7937 19.6819 10.5996
1 15.8296 20.4888 9.78024
1 15.0608 19.6865 9.76329
1 16.5874 20.4756 10.5996
1 17.3811 19.6819 10.5996
1 17.376 20.465 9.82472
1 16.6021 19.6929 9.78417
1 18.1748 20.4756 10.5996
1 18.9685 19.6819 10.5996
1 18.9638 20.4613 9.79304
1 18.1651 19.6814 9.80816
1 19.7622 20.4756 10.5996
1 20.5559 19.6819 10.5996
1 20.5453 20.4811 9.80996
1 19.7286 19.6835 9.80979
1 21.3496 20.4756 10.5996
1 22.1433 19.6819 10.5996
1 22.1577 20.4635 9.82233
1 21.3571 19.6851 9.79545
1 22.937 20.4756 10.5996
1 23.7307 19.6819 10.5996
1 23.7328 20.4948 9.79675
1 22.9368 19.6824 9.82487
1 24.5244 20.4756 10.5996
1 25.3181 19.6819 10.5996
1 25.3237 20.5119 9.84021
1 24.5164 19.7069 9.82143
1 26.1118 20.4756 10.5996
1 26.9055 19.6819 10.5996
1 26.9171 20.4712 9.81005
1 26.0809 19.6821 9.82694
1 27.6992 20.4756 10.5996
1 28.4929 19.6819 10.5996
1 28.497 20.4773 9.79955
1 27.7174 19.7003 9.79705
1 29.2866 20.4756 10.5996
1 0.08031 19.6819 10.5996
1 0.063939 20.4756 9.79585
1 29.2584 19.6839 9.78776
1 0.874011 20.4756 10.5996
1 1.66771 19.6819 10.5996
1 1.68375 20.4887 9.81304
1 0.865374 19.7036 9.82235
1 2.46141 20.4756 10.5996
1 3.25511 19.6819 10.5996
1 3.24345 20.4898 9.79554
1 2.43819 19.6951 9.80203
1 4.04881 20.4756 10.5996
1 4.84251 19.6819 10.5996
1 4.85864 20.4681 9.81288
1 4.0482 19.6514 9.80797
1 5.63621 20.4756 10.5996
1 6.42991 19.6819 10.5996
1 6.44374 20.4724 9.82349
1 5.63993 19.6834 9.80611
1 7.22361 20.4756 10.5996
1 8.01732 19.6819 10.5996
1 8.02736 20.4896 9.79615
1 7.23371 19.6906 9.78305
1 8.81102 20.4756 10.5996
1 9.60472 19.6819 10.5996
1 9.59569 20.4843 9.81913
1 8.815 19.6705 9.79851
1 10.3984 20.4756 10.5996
1 11.1921 19.6819 10.5996
1 11.1821 20.4935 9.80811
1 10.4059 19.6823 9.80943
1 11.9858 20.4756 10.5996
1 12.7795 19.6819 10.5996
1 12.737 20.4693 9.81207
1 11.9585 19.6877 9.80693
1 13.5732 20.4756 10.5996
1 14.3669 19.6819 10.5996
1 14.2998 20.4951 9.76637
1 13.5493 19.6951 9.80166
1 15 18.8882 10.5996
1 15.7937 18.0945 10.5996
1 15.8089 18.909 9.78298
1 15.0833 18.0857 9.7569
1 16.5874 18.8882 10.5996
1 17.3811 18.0945 10.5996
1 17.3587 18.8995 9.79272
1 16.5739 18.1221 9.81012
1 18.1748 18.8882 10.5996
1 18.9685 18.0945 10.5996
1 18.9703 18.9001 9.80875
1 18.1582 18.1145 9.80869
1 19.7622 18.8882 10.5996
1 20.5559 18.0945 10.5996
1 20.5527 18.8944 9.82534
1 19.7496 18.0749 9.80156
1 21.3496 18.8882 10.5996
1 22.1433 18.0945 10.5996
1 22.1439 18.8898 9.81849
1 21.358 18.0983 9.8035
1 22.937 18.8882 10.5996
1 23.7307 18.0945 10.5996
1 23.7305 18.8824 9.80478
1 22.9465 18.0769 9.82462
1 24.5244 18.8882 10.5996
1 25.3181 18.0945 10.5996
1 25.301 18.8916 9.79415
1 24.535 18.0847 9.81801
1 26.1118 18.8882 10.5996
1 26.9055 18.0945 10.5996
1 26.9068 18.9245 9.79572
1 26.1254 18.1077 9.79837
1 27.6992 18.8882 10.5996
1 28.4929 18.0945 10.5996
1 28.4942 18.8854 9.82126
1 27.6762 18.1134 9.81347
1 29.2866 18.8882 10.5996
1 0.08031 18.0945 10.5996
1 0.0489433 18.8797 9.79561
1 29.2927 18.069 9.82052
1 0.874011 18.8882 10.5996
1 1.66771 18.0945 10.5996
1 1.66611 18.8936 9.81507
1 0.856452 18.115 9.80976
1 2.46141 18.8882 10.5996
1 3.25511 18.0945 10.5996
1 3.24912 18.8765 9.79141
1 2.441 18.1107 9.80605
1 4.04881 18.8882 10.5996
1 4.84251 18.0945 10.5996
1 4.86288 18.8852 9.8253
1 4.05434 18.1247 9.81739
1 5.63621 18.8882 10.5996
1 6.42991 18.0945 10.5996
1 6.41807 18.8837 9.811
1 5.64077 18.0829 9.81618
1 7.22361 18.8882 10.5996
1 8.01732 18.0945 10.5996
1 8.00329 18.9099 9.79337
1 7.24039 18.1047 9.81183
1 8.81102 18.8882 10.5996
1 9.60472 18.0945 10.5996
1 9.58536 18.8792 9.81603
1 8.79293 18.095 9.80099
1 10.3984 18.8882 10.5996
1 11.1921 18.0945 10.5996
1 11.1912 18.9021 9.77668
1 10.3866 18.0927 9.81937
1 11.9858 18.8882 10.5996
1 12.7795 18.0945 10.5996
1 12.7481 18.8989 9.80832
1 11.9871 18.0951 9.82831
1 13.5732 18.8882 10.5996
1 14.3669 18.0945 10.5996
1 14.2986 18.8906 9.78118
1 13.5335 18.088 9.79299
1 15 17.3008 10.5996
1 15.7937 16.5071 10.5996
1 15.8385 17.33 9.7931
1 15.0712 16.5028 9.79673
1 16.5874 17.3008 10.5996
1 17.3811 16.5071 10.5996
1 17.3914 17.2966 9.80875
1 16.5975 16.4873 9.79663
1 18.1748 17.3008 10.5996
1 18.9685 16.5071 10.5996
1 18.9689 17.3088 9.818
1 18.1771 16.4904 9.81108
1 19.7622 17.3008 10.5996
1 20.5559 16.5071 10.5996
1 20.5569 17.2686 9.81054
1 19.7785 16.4805 9.79264
1 21.3496 17.3008 10.5996
1 22.1433 16.5071 10.5996
1 22.1636 17.2908 9.81358
1 21.369 16.5044 9.81685
1 22.937 17.3008 10.5996
1 23.7307 16.5071 10.5996
1 23.7392 17.3106 9.79215
1 22.9591 16.4964 9.80902
1 24.5244 17.3008 10.5996
1 25.3181 16.5071 10.5996
1 25.3394 17.3004 9.81182
1 24.5255 16.4931 9.79937
1 26.1118 17.3008 10.5996
1 26.9055 16.5071 10.5996
1 26.909 17.2721 9.80576
1 26.1121 16.5005 9.81111
1 27.6992 17.3008 10.5996
1 28.4929 16.5071 10.5996
1 28.5169 17.269 9.82334
1 27.7001 16.5145 9.82981
1 29.2866 17.3008 10.5996
1 0.08031 16.5071 10.5996
1 0.0884854 17.2835 9.80091
1 29.2802 16.5003 9.82107
1 0.874011 17.3008 10.5996
1 1.66771 16.5071 10.5996
1 1.65271 17.3291 9.82746
1 0.879036 16.5035 9.8096
1 2.46141 17.3008 10.5996
1 3.25511 16.5071 10.5996
1 3.26192 17.3142 9.80663
1 2.47294 16.4785 9.79678
1 4.04881 17.3008 10.5996
1 4.84251 16.5071 10.5996
1 4.81701 17.3284 9.80578
1 4.03615 16.5003 9.8201
1 5.63621 17.3008 10.5996
1 6.42991 16.5071 10.5996
1 6.43354 17.3397 9.84211
1 5.63466 16.5262 9.80549
1 7.22361 17.3008 10.5996
1 8.01732 16.5071 10.5996
1 8.00837 17.3112 9.80068
1 7.19745 16.4919 9.81191
1 8.81102 17.3008 10.5996
1 9.60472 16.5071 10.5996
1 9.57604 17.3306 9.81017
1 8.80576 16.5006 9.80058
1 10.3984 17.3008 10.5996
1 11.1921 16.5071 10.5996
1 11.198 17.3133 9.82694
1 10.389 16.5464 9.81146
1 11.9858 17.3008 10.5996
1 12.7795 16.5071 10.5996
1 12.7722 17.3115 9.79705
1 11.9763 16.5058 9.80552
1 13.5732 17.3008 10.5996
1 14.3669 16.5071 10.5996
1 14.2942 17.3002 9.7714
1 13.5431 16.5152 9.78298
1 15 15.7134 10.5996
1 15.7937 14.9197 10.5996
1 15.8419 15.6921 9.78752
1 15.0768 14.946 9.77243
1 16.5874 15.7134 10.5996
1 17.3811 14.9197 10.5996
1 17.3909 15.7011 9.80888
1 16.6303 14.9095 9.81126
1 18.1748 15.7134 10.5996
1 18.9685 14.9197 10.5996
1 18.9913 15.6901 9.7833
1 18.1676 14.912 9.83197
1 19.7622 15.7134 10.5996
1 20.5559 14.9197 10.5996
1 20.5419 15.7275 9.79128
1 19.7498 14.898 9.80307
1 21.3496 15.7134 10.5996
1 22.1433 14.9197 10.5996
1 22.1314 15.7149 9.81837
1 21.366 14.9534 9.81718
1 22.937 15.7134 10.5996
1 23.7307 14.9197 10.5996
1 23.7363 15.7079 9.83286
1 22.9249 14.9281 9.79523
1 24.5244 15.7134 10.5996
1 25.3181 14.9197 10.5996
1 25.3177 15.7101 9.79457
1 24.554 14.9223 9.80959
1 26.1118 15.7134 10.5996
1 26.9055 14.9197 10.5996
1 26.9053 15.6896 9.82996
1 26.1138 14.9089 9.78989
1 27.6992 15.7134 10.5996
1 28.4929 14.9197 10.5996
1 28.4919 15.6912 9.82249
1 27.7057 14.9067 9.83362
1 29.2866 15.7134 10.5996
1 0.08031 14.9197 10.5996
1 0.091673 15.7144 9.79431
1 29.2926 14.9166 9.81462
1 0.874011 15.7134 10.5996
1 1.66771 14.9197 10.5996
1 1.67984 15.7296 9.78361
1 0.868737 14.9175 9.82208
1 2.46141 15.7134 10.5996
1 3.25511 14.9197 10.5996
1 3.25287 15.7102 9.80217
1 2.46006 14.9521 9.79925
1 4.04881 15.7134 10.5996
1 4.84251 14.9197 10.5996
1 4.8441 15.7124 9.83383
1 4.05878 14.9193 9.81207
1 5.63621 15.7134 10.5996
1 6.42991 14.9197 10.5996
1 6.43307 15.7228 9.78613
1 5.64735 14.9248 9.7954
1 7.22361 15.7134 10.5996
1 8.01732 14.9197 10.5996
1 7.99452 15.7003 9.77606
1 7.21345 14.9021 9.79996
1 8.81102 15.7134 10.5996
1 9.60472 14.9197 10.5996
1 9.61148 15.7324 9.78902
1 8.81751 14.8974 9.81355
1 10.3984 15.7134 10.5996
1 11.1921 14.9197 10.5996
1 11.1564 15.7123 9.813
1 10.3801 14.925 9.82158
1 11.9858 15.7134 10.5996
1 12.7795 14.9197 10.5996
1 12.7619 15.7318 9.80509
1 11.9719 14.9269 9.82781
1 13.5732 15.7134 10.5996
1 14.3669 14.9197 10.5996
1 14.2932 15.7473 9.81391
1 13.549 14.9202 9.80129
1 15 14.126 10.5996
1 15.7937 13.3323 10.5996
1 15.8163 14.1134 9.80967
1 15.0614 13.3382 9.80338
1 16.5874 14.126 10.5996
1 17.3811 13.3323 10.5996
1 17.3768 14.0903 9.82863
1 16.5926 13.3215 9.81976
1 18.1748 14.126 10.5996
1 18.9685 13.3323 10.5996
1 18.9823 14.1367 9.82956
1 18.1999 13.3355 9.81345
1 19.7622 14.126 10.5996
1 20.5559 13.3323 10.5996
1 20.5461 14.1413 9.8301
1 19.7516 13.3221 9.81082
1 21.3496 14.126 10.5996
1 22.1433 13.3323 10.5996
1 22.1477 14.1243 9.81792
1 21.3666 13.3424 9.82286
1 22.937 14.126 10.5996
1 23.7307 13.3323 10.5996
1 23.7188 14.1211 9.79271
1 22.9373 13.3368 9.80673
1 24.5244 14.126 10.5996
1 25.3181 13.3323 10.5996
1 25.334 14.1178 9.80396
1 24.5295 13.3477 9.79956
1 26.1118 14.126 10.5996
1 26.9055 13.3323 10.5996
1 26.9211 14.1109 9.8054
1 26.1319 13.3328 9.80499
1 27.6992 14.126 10.5996
1 28.4929 13.3323 10.5996
1 28.4934 14.1158 9.83458
1 27.7172 13.3087 9.79474
1 29.2866 14.126 10.5996
1 0.08031 13.3323 10.5996
1 0.0832154 14.1174 9.80113
1 29.2557 13.3289 9.79585
1 0.874011 14.126 10.5996
1 1.66771 13.3323 10.5996
1 1.66177 14.1237 9.79027
1 0.877219 13.3371 9.80895
1 2.46141 14.126 10.5996
1 3.25511 13.3323 10.5996
1 3.25005 14.1356 9.79554
1 2.48154 13.3308 9.79108
1 4.04881 14.126 10.5996
1 4.84251 13.3323 10.5996
1 4.84501 14.1089 9.79306
1 4.04836 13.3635 9.82201
1 5.63621 14.126 10.5996
1 6.42991 13.3323 10.5996
1 6.42013 14.1032 9.80517
1 5.6337 13.349 9.82069
1 7.22361 14.126 10.5996
1 8.01732 13.3323 10.5996
1 8.02103 14.1295 9.79433
1 7.19965 13.331 9.78597
1 8.81102 14.126 10.5996
1 9.60472 13.3323 10.5996
1 9.62534 14.1406 9.80995
1 8.79656 13.3342 9.78872
1 10.3984 14.126 10.5996
1 11.1921 13.3323 10.5996
1 11.1663 14.1272 9.83673
1 10.4033 13.3336 9.81201
1 11.9858 14.126 10.5996
1 12.7795 13.3323 10.5996
1 12.7733 14.1291 9.80605
1 11.9943 13.358 9.76597
1 13.5732 14.126 10.5996
1 14.3669 13.3323 10.5996
1 14.3049 14.1612 9.76004
1 13.5513 13.3186 9.77299
1 15 12.5386 10.5996
1 15.7937 11.7449 10.5996
1 15.8396 12.5545 9.79076
1 15.0891 11.7247 9.75976
1 16.5874 12.5386 10.5996
1 17.3811 11.7449 10.5996
1 17.394 12.5307 9.79686
1 16.5969 11.7321 9.78112
1 18.1748 12.5386 10.5996
1 18.9685 11.7449 10.5996
1 18.9794 12.5382 9.77313
1 18.1759 11.7616 9.81656
1 19.7622 12.5386 10.5996
1 20.5559 11.7449 10.5996
1 20.5646 12.5517 9.81302
1 19.7618 11.7445 9.80972
1 21.3496 12.5386 10.5996
1 22.1433 11.7449 10.5996
1 22.142 12.5484 9.80598
1 21.3514 11.7299 9.82728
1 22.937 12.5386 10.5996
1 23.7307 11.7449 10.5996
1 23.7419 12.5427 9.80972
1 22.9399 11.7374 9.7997
1 24.5244 12.5386 10.5996
1 25.3181 11.7449 10.5996
1 25.3385 12.5445 9.8068
1 24.5437 11.7404 9.81963
1 26.1118 12.5386 10.5996
1 26.9055 11.7449 10.5996
1 26.8911 12.5402 9.8324
1 26.1036 11.7267 9.78722
1 27.6992 12.5386 10.5996
1 28.4929 11.7449 10.5996
1 28.5046 12.5056 9.82047
1 27.6922 11.7528 9.8089
1 29.2866 12.5386 10.5996
1 0.08031 11.7449 10.5996
1 0.0790538 12.546 9.8186
1 29.3081 11.7526 9.8112
1 0.874011 12.5386 10.5996
1 1.66771 11.7449 10.5996
1 1.6581 12.5298 9.80542
1 0.830156 11.7345 9.82769
1 2.46141 12.5386 10.5996
1 3.25511 11.7449 10.5996
1 3.24294 12.5432 9.81805
1 2.44896 11.7348 9.81605
1 4.04881 12.5386 10.5996
1 4.84251 11.7449 10.5996
1 4.83804 12.5349 9.78119
1 4.05995 11.7421 9.82215
1 5.63621 12.5386 10.5996
1 6.42991 11.7449 10.5996
1 6.42393 12.5507 9.79678
1 5.64786 11.7531 9.80115
1 7.22361 12.5386 10.5996
1 8.01732 11.7449 10.5996
1 7.98955 12.5294 9.81569
1 7.2156 11.7438 9.79618
1 8.81102 12.5386 10.5996
1 9.60472 11.7449 10.5996
1 9.6021 12.55 9.80871
1 8.80638 11.753 9.8201
1 10.3984 12.5386 10.5996
1 11.1921 11.7449 10.5996
1 11.198 12.5254 9.79469
1 10.3757 11.7617 9.79037
1 11.9858 12.5386 10.5996
1 12.7795 11.7449 10.5996
1 12.7623 12.5252 9.79304
1 11.9587 11.7245 9.81592
1 13.5732 12.5386 10.5996
1 14.3669 11.7449 10.5996
1 14.32 12.535 9.77988
1 13.5247 11.7466 9.78158
1 15 10.9512 10.5996
1 15.7937 10.1575 10.5996
1 15.8245 10.9275 9.81092
1 15.0521 10.142 9.7607
1 16.5874 10.9512 10.5996
1 17.3811 10.1575 10.5996
1 17.3975 10.9346 9.81215
1 16.6228 10.134 9.80545
1 18.1748 10.9512 10.5996
1 18.9685 10.1575 10.5996
1 18.9857 10.9554 9.81315
1 18.174 10.1536 9.81587
1 19.7622 10.9512 10.5996
1 20.5559 10.1575 10.5996
1 20.5491 10.9606 9.7981
1 19.7633 10.1752 9.81912
1 21.3496 10.9512 10.5996
1 22.1433 10.1575 10.5996
1 22.1413 10.9346 9.80909
1 21.3374 10.1426 9.82009
1 22.937 10.9512 10.5996
1 23.7307 10.1575 10.5996
1 23.7523 10.951 9.78957
1 22.9409 10.1691 9.8204
1 24.5244 10.9512 10.5996
1 25.3181 10.1575 10.5996
1 25.3126 10.9544 9.81314
1 24.5135 10.1645 9.81359
1 26.1118 10.9512 10.5996
1 26.9055 10.1575 10.5996
1 26.891 10.9401 9.79886
1 26.0994 10.1308 9.80662
1 27.6992 10.9512 10.5996
1 28.4929 10.1575 10.5996
1 28.5053 10.9588 9.80593
1 27.6997 10.1539 9.80129
1 29.2866 10.9512 10.5996
1 0.08031 10.1575 10.5996
1 0.0562815 10.9365 9.82531
1 29.2929 10.1326 9.79685
1 0.874011 10.9512 10.5996
1 1.66771 10.1575 10.5996
1 1.62092 10.9522 9.81658
1 0.857921 10.1329 9.79654
1 2.46141 10.9512 10.5996
1 3.25511 10.1575 10.5996
1 3.28535 10.9541 9.80691
1 2.42735 10.1661 9.82591
1 4.04881 10.9512 10.5996
1 4.84251 10.1575 10.5996
1 4.83743 10.9373 9.83066
1 4.02973 10.1594 9.81809
1 5.63621 10.9512 10.5996
1 6.42991 10.1575 10.5996
1 6.46661 10.9337 9.81647
1 5.64953 10.1789 9.80963
1 7.22361 10.9512 10.5996
1 8.01732 10.1575 10.5996
1 7.99787 10.9433 9.81504
1 7.23952 10.1569 9.82658
1 8.81102 10.9512 10.5996
1 9.60472 10.1575 10.5996
1 9.59722 10.9645 9.82761
1 8.80296 10.1555 9.80208
1 10.3984 10.9512 10.5996
1 11.1921 10.1575 10.5996
1 11.1548 10.9649 9.80985
1 10.4025 10.1353 9.80761
1 11.9858 10.9512 10.5996
1 12.7795 10.1575 10.5996
1 12.7609 10.9365 9.78363
1 11.9749 10.1543 9.81322
1 13.5732 10.9512 10.5996
1 14.3669 10.1575 10.5996
1 14.3076 10.9573 9.77885
1 13.5862 10.169 9.80535
1 15 9.36379 10.5996
1 15.7937 8.57009 10.5996
1 15.8071 9.34539 9.79604
1 15.0375 8.55156 9.79044
1 16.5874 9.36379 10.5996
1 17.3811 8.57009 10.5996
1 17.4138 9.35521 9.80936
1 16.6108 8.56367 9.8071
1 18.1748 9.36379 10.5996
1 18.9685 8.57009 10.5996
1 18.9889 9.35822 9.81762
1 18.2056 8.57094 9.77816
1 19.7622 9.36379 10.5996
1 20.5559 8.57009 10.5996
1 20.5526 9.36184 9.81147
1 19.7727 8.56552 9.77976
1 21.3496 9.36379 10.5996
1 22.1433 8.57009 10.5996
1 22.1606 9.36956 9.80501
1 21.3689 8.61791 9.81778
1 22.937 9.36379 10.5996
1 23.7307 8.57009 10.5996
1 23.7296 9.38089 9.78188
1 22.9073 8.58564 9.79857
1 24.5244 9.36379 10.5996
1 25.3181 8.57009 10.5996
1 25.3212 9.35735 9.79764
1 24.5113 8.56946 9.81246
1 26.1118 9.36379 10.5996
1 26.9055 8.57009 10.5996
1 26.9172 9.35923 9.80401
1 26.1173 8.56672 9.81138
1 27.6992 9.36379 10.5996
1 28.4929 8.57009 10.5996
1 28.4961 9.38076 9.8066
1 27.6928 8.58281 9.81176
1 29.2866 9.36379 10.5996
1 0.08031 8.57009 10.5996
1 0.0771401 9.34138 9.78761
1 29.295 8.56462 9.81319
1 0.874011 9.36379 10.5996
1 1.66771 8.57009 10.5996
1 1.65669 9.37905 9.79067
1 0.859969 8.57183 9.80346
1 2.46141 9.36379 10.5996
1 3.25511 8.57009 10.5996
1 3.22659 9.36203 9.82182
1 2.4458 8.56951 9.82316
1 4.04881 9.36379 10.5996
1 4.84251 8.57009 10.5996
1 4.83996 9.4043 9.81367
1 4.0428 8.59735 9.79809
1 5.63621 9.36379 10.5996
1 6.42991 8.57009 10.5996
1 6.43343 9.34441 9.80266
1 5.62897 8.59258 9.77928
1 7.22361 9.36379 10.5996
1 8.01732 8.57009 10.5996
1 8.03329 9.36984 9.8009
1 7.22402 8.5482 9.79967
1 8.81102 9.36379 10.5996
1 9.60472 8.57009 10.5996
1 9.61408 9.3565 9.82867
1 8.8219 8.56502 9.81078
1 10.3984 9.36379 10.5996
1 11.1921 8.57009 10.5996
1 11.1798 9.35395 9.82612
1 10.3968 8.57187 9.8015
1 11.9858 9.36379 10.5996
1 12.7795 8.57009 10.5996
1 12.7618 9.35965 9.78059
1 11.9522 8.5552 9.80315
1 13.5732 9.36379 10.5996
1 14.3669 8.57009 10.5996
1 14.3277 9.36381 9.77513
1 13.5523 8.57881 9.81938
1 15 7.77639 10.5996
1 15.7937 6.98268 10.5996
1 15.782 7.79093 9.81746
1 15.0463 6.97361 9.73908
1 16.5874 7.77639 10.5996
1 17.3811 6.98268 10.5996
1 17.3891 7.76359 9.78583
1 16.5852 6.99762 9.79078
1 18.1748 7.77639 10.5996
1 18.9685 6.98268 10.5996
1 19.0006 7.78898 9.80109
1 18.1955 6.99097 9.81136
1 19.7622 7.77639 10.5996
1 20.5559 6.98268 10.5996
1 20.5889 7.78817 9.80472
1 19.7734 7.02421 9.81807
1 21.3496 7.77639 10.5996
1 22.1433 6.98268 10.5996
1 22.1225 7.79496 9.79136
1 21.3562 7.00714 9.78532
1 22.937 7.77639 10.5996
1 23.7307 6.98268 10.5996
1 23.7164 7.77275 9.81401
1 22.9195 6.9482 9.79839
1 24.5244 7.77639 10.5996
1 25.3181 6.98268 10.5996
1 25.2962 7.74572 9.8131
1 24.5253 6.98407 9.80712
1 26.1118 7.77639 10.5996
1 26.9055 6.98268 10.5996
1 26.9152 7.78949 9.79482
1 26.1206 6.9711 9.81885
1 27.6992 7.77639 10.5996
1 28.4929 6.98268 10.5996
1 28.5131 7.78109 9.82639
1 27.7051 6.98278 9.82004
1 29.2866 7.77639 10.5996
1 0.08031 6.98268 10.5996
1 0.0706164 7.78123 9.79255
1 29.2954 6.9793 9.81271
1 0.874011 7.77639 10.5996
1 1.66771 6.98268 10.5996
1 1.67622 7.79779 9.81152
1 0.874657 6.98804 9.78176
1 2.46141 7.77639 10.5996
1 3.25511 6.98268 10.5996
1 3.25665 7.79386 9.81477
1 2.47045 6.97315 9.79921
1 4.04881 7.77639 10.5996
1 4.84251 6.98268 10.5996
1 4.82357 7.77715 9.81661
1 4.03095 6.96682 9.78708
1 5.63621 7.77639 10.5996
1 6.42991 6.98268 10.5996
1 6.41617 7.75423 9.78292
1 5.63446 6.98826 9.80615
1 7.22361 7.77639 10.5996
1 8.01732 6.98268 10.5996
1 8.02897 7.77719 9.82709
1 7.25189 6.96894 9.8028
1 8.81102 7.77639 10.5996
1 9.60472 6.98268 10.5996
1 9.59422 7.77225 9.78696
1 8.80192 6.98484 9.80662
1 10.3984 7.77639 10.5996
1 11.1921 6.98268 10.5996
1 11.1686 7.78321 9.8177
1 10.3796 6.99821 9.82337
1 11.9858 7.77639 10.5996
1 12.7795 6.98268 10.5996
1 12.7731 7.78122 9.80655
1 11.9696 7.0223 9.79236
1 13.5732 7.77639 10.5996
1 14.3669 6.98268 10.5996
1 14.2869 7.77665 9.76646
1 13.536 6.97836 9.80119
1 15 6.18898 10.5996
1 15.7937 5.39528 10.5996
1 15.8244 6.18436 9.79916
1 15.0705 5.42035 9.76518
1 16.5874 6.18898 10.5996
1 17.3811 5.39528 10.5996
1 17.382 6.20773 9.78864
1 16.5984 5.41064 9.78979
1 18.1748 6.18898 10.5996
1 18.9685 5.39528 10.5996
1 18.9713 6.2063 9.78568
1 18.185 5.40281 9.83873
1 19.7622 6.18898 10.5996
1 20.5559 5.39528 10.5996
1 20.5494 6.20179 9.83506
1 19.7713 5.40684 9.79027
1 21.3496 6.18898 10.5996
1 22.1433 5.39528 10.5996
1 22.1387 6.17539 9.81102