9376
Atoms. Timestep: 4000000
1 15 3.55271e-15 12.4355
1 15.7937 29.2063 12.4355
1 15.82 29.9398 11.6067
1 15.076 29.1744 11.6216
1 16.5874 3.55271e-15 12.4355
1 17.3811 29.2063 12.4355
1 17.3868 29.9436 11.5866
1 16.601 29.1985 11.6237
1 18.1748 3.55271e-15 12.4355
1 18.9685 29.2063 12.4355
1 18.9557 29.9187 11.6003
1 18.1666 29.1579 11.6364
1 19.7622 3.55271e-15 12.4355
1 20.5559 29.2063 12.4355
1 20.5743 29.9407 11.6238
1 19.7896 29.1733 11.6467
1 21.3496 3.55271e-15 12.4355
1 22.1433 29.2063 12.4355
1 22.1494 29.9394 11.6142
1 21.3328 29.1799 11.6326
1 22.937 3.55271e-15 12.4355
1 23.7307 29.2063 12.4355
1 23.7348 29.9317 11.6107
1 22.9436 29.1936 11.6216
1 24.5244 3.55271e-15 12.4355
1 25.3181 29.2063 12.4355
1 25.3211 29.9339 11.6335
1 24.535 29.171 11.6291
1 26.1118 3.55271e-15 12.4355
1 26.9055 29.2063 12.4355
1 26.9255 29.9392 11.6177
1 26.1272 29.1917 11.6316
1 27.6992 3.55271e-15 12.4355
1 28.4929 29.2063 12.4355
1 28.5089 29.9227 11.6058
1 27.7062 29.1509 11.6409
1 29.2866 3.55271e-15 12.4355
1 0.08031 29.2063 12.4355
1 0.110506 29.9275 11.6161
1 29.293 29.1615 11.6298
1 0.874011 3.55271e-15 12.4355
1 1.66771 29.2063 12.4355
1 1.65891 29.9332 11.6144
1 0.864699 29.1483 11.6474
1 2.46141 3.55271e-15 12.4355
1 3.25511 29.2063 12.4355
1 3.25847 29.9275 11.6203
1 2.43747 29.1941 11.6448
1 4.04881 3.55271e-15 12.4355
1 4.84251 29.2063 12.4355
1 4.86157 29.9444 11.585
1 4.04348 29.2084 11.6247
1 5.63621 3.55271e-15 12.4355
1 6.42991 29.2063 12.4355
1 6.41994 29.9437 11.6051
1 5.63482 29.1541 11.629
1 7.22361 3.55271e-15 12.4355
1 8.01732 29.2063 12.4355
1 8.01629 29.9303 11.6058
1 7.23306 29.1647 11.6355
1 8.81102 3.55271e-15 12.4355
1 9.60472 29.2063 12.4355
1 9.60988 29.9076 11.5853
1 8.80883 29.1778 11.6114
1 10.3984 3.55271e-15 12.4355
1 11.1921 29.2063 12.4355
1 11.1498 29.9017 11.6121
1 10.3855 29.1564 11.6566
1 11.9858 3.55271e-15 12.4355
1 12.7795 29.2063 12.4355
1 12.7759 29.9192 11.6014
1 11.9699 29.1854 11.6513
1 13.5732 3.55271e-15 12.4355
1 14.3669 29.2063 12.4355
1 14.2983 29.9203 11.5791
1 13.5608 29.1638 11.6109
1 15 28.4126 12.4355
1 15.7937 27.6189 12.4355
1 15.8294 28.3986 11.6234
1 15.0597 27.6067 11.6155
1 16.5874 28.4126 12.4355
1 17.3811 27.6189 12.4355
1 17.3718 28.3984 11.6303
1 16.6181 27.6072 11.6344
1 18.1748 28.4126 12.4355
1 18.9685 27.6189 12.4355
1 18.9601 28.3866 11.6757
1 18.178 27.621 11.6509
1 19.7622 28.4126 12.4355
1 20.5559 27.6189 12.4355
1 20.5693 28.3801 11.6581
1 19.785 27.6095 11.6567
1 21.3496 28.4126 12.4355
1 22.1433 27.6189 12.4355
1 22.1355 28.4095 11.6561
1 21.3466 27.6197 11.635
1 22.937 28.4126 12.4355
1 23.7307 27.6189 12.4355
1 23.7415 28.378 11.6509
1 22.9094 27.5844 11.6315
1 24.5244 28.4126 12.4355
1 25.3181 27.6189 12.4355
1 25.3248 28.3949 11.6312
1 24.5495 27.6027 11.6412
1 26.1118 28.4126 12.4355
1 26.9055 27.6189 12.4355
1 26.8819 28.3963 11.6292
1 26.0932 27.607 11.6481
1 27.6992 28.4126 12.4355
1 28.4929 27.6189 12.4355
1 28.5033 28.3751 11.646
1 27.6946 27.6292 11.6046
1 29.2866 28.4126 12.4355
1 0.08031 27.6189 12.4355
1 0.0730383 28.3794 11.6356
1 29.2748 27.6022 11.6412
1 0.874011 28.4126 12.4355
1 1.66771 27.6189 12.4355
1 1.68069 28.3894 11.6206
1 0.888534 27.6099 11.64
1 2.46141 28.4126 12.4355
1 3.25511 27.6189 12.4355
1 3.24273 28.432 11.669
1 2.45328 27.6357 11.6462
1 4.04881 28.4126 12.4355
1 4.84251 27.6189 12.4355
1 4.82273 28.38 11.6458
1 4.0202 27.6229 11.6593
1 5.63621 28.4126 12.4355
1 6.42991 27.6189 12.4355
1 6.43538 28.3988 11.6192
1 5.6489 27.6309 11.6346
1 7.22361 28.4126 12.4355
1 8.01732 27.6189 12.4355
1 8.02505 28.384 11.6338
1 7.20549 27.6421 11.6293
1 8.81102 28.4126 12.4355
1 9.60472 27.6189 12.4355
1 9.6049 28.3855 11.6203
1 8.82251 27.6084 11.6035
1 10.3984 28.4126 12.4355
1 11.1921 27.6189 12.4355
1 11.219 28.4159 11.628
1 10.4191 27.6107 11.6426
1 11.9858 28.4126 12.4355
1 12.7795 27.6189 12.4355
1 12.7783 28.3674 11.6443
1 11.9753 27.5998 11.609
1 13.5732 28.4126 12.4355
1 14.3669 27.6189 12.4355
1 14.3122 28.3779 11.6081
1 13.5712 27.5838 11.6464
1 15 26.8252 12.4355
1 15.7937 26.0315 12.4355
1 15.8253 26.8492 11.6544
1 15.0489 26.0571 11.5967
1 16.5874 26.8252 12.4355
1 17.3811 26.0315 12.4355
1 17.3823 26.7962 11.6461
1 16.5984 26.0587 11.6471
1 18.1748 26.8252 12.4355
1 18.9685 26.0315 12.4355
1 18.9565 26.8015 11.6811
1 18.1779 26.0187 11.6568
1 19.7622 26.8252 12.4355
1 20.5559 26.0315 12.4355
1 20.5658 26.8134 11.6462
1 19.7735 26.0454 11.663
1 21.3496 26.8252 12.4355
1 22.1433 26.0315 12.4355
1 22.139 26.8114 11.6476
1 21.3573 26.0382 11.6377
1 22.937 26.8252 12.4355
1 23.7307 26.0315 12.4355
1 23.7389 26.8149 11.6535
1 22.9689 26.0498 11.6297
1 24.5244 26.8252 12.4355
1 25.3181 26.0315 12.4355
1 25.3043 26.7996 11.6323
1 24.5334 26.0151 11.6368
1 26.1118 26.8252 12.4355
1 26.9055 26.0315 12.4355
1 26.8946 26.8458 11.6155
1 26.1309 26.0237 11.6562
1 27.6992 26.8252 12.4355
1 28.4929 26.0315 12.4355
1 28.4843 26.8273 11.6247
1 27.7 26.024 11.6382
1 29.2866 26.8252 12.4355
1 0.08031 26.0315 12.4355
1 0.0627245 26.8206 11.6468
1 29.2968 26.0377 11.6224
1 0.874011 26.8252 12.4355
1 1.66771 26.0315 12.4355
1 1.67614 26.8119 11.6426
1 0.8617 26.0215 11.6625
1 2.46141 26.8252 12.4355
1 3.25511 26.0315 12.4355
1 3.2505 26.783 11.6157
1 2.46439 26.0185 11.6424
1 4.04881 26.8252 12.4355
1 4.84251 26.0315 12.4355
1 4.83465 26.815 11.6451
1 4.05999 25.9994 11.6267
1 5.63621 26.8252 12.4355
1 6.42991 26.0315 12.4355
1 6.39994 26.8245 11.6162
1 5.63104 26.0298 11.6277
1 7.22361 26.8252 12.4355
1 8.01732 26.0315 12.4355
1 8.01801 26.8332 11.6695
1 7.19018 26.0283 11.6458
1 8.81102 26.8252 12.4355
1 9.60472 26.0315 12.4355
1 9.58276 26.8246 11.6328
1 8.82271 26.0334 11.6439
1 10.3984 26.8252 12.4355
1 11.1921 26.0315 12.4355
1 11.1887 26.8219 11.6355
1 10.3756 26.0114 11.6136
1 11.9858 26.8252 12.4355
1 12.7795 26.0315 12.4355
1 12.7725 26.8064 11.6275
1 11.9891 26.0274 11.638
1 13.5732 26.8252 12.4355
1 14.3669 26.0315 12.4355
1 14.2825 26.8273 11.6319
1 13.5282 26.0332 11.6375
1 15 25.2378 12.4355
1 15.7937 24.4441 12.4355
1 15.7961 25.2474 11.639
1 15.0612 24.4411 11.6031
1 16.5874 25.2378 12.4355
1 17.3811 24.4441 12.4355
1 17.3966 25.2223 11.6232
1 16.6223 24.4398 11.6492
1 18.1748 25.2378 12.4355
1 18.9685 24.4441 12.4355
1 18.9718 25.2509 11.6381
1 18.1826 24.4373 11.6515
1 19.7622 25.2378 12.4355
1 20.5559 24.4441 12.4355
1 20.5414 25.2033 11.6622
1 19.7528 24.4457 11.666
1 21.3496 25.2378 12.4355
1 22.1433 24.4441 12.4355
1 22.1351 25.2353 11.6377
1 21.356 24.4583 11.6548
1 22.937 25.2378 12.4355
1 23.7307 24.4441 12.4355
1 23.7297 25.2304 11.6605
1 22.9514 24.4514 11.652
1 24.5244 25.2378 12.4355
1 25.3181 24.4441 12.4355
1 25.3122 25.215 11.653
1 24.494 24.4478 11.6403
1 26.1118 25.2378 12.4355
1 26.9055 24.4441 12.4355
1 26.8895 25.2461 11.6422
1 26.101 24.4367 11.6657
1 27.6992 25.2378 12.4355
1 28.4929 24.4441 12.4355
1 28.4972 25.2126 11.6406
1 27.6928 24.457 11.6504
1 29.2866 25.2378 12.4355
1 0.08031 24.4441 12.4355
1 0.0559092 25.2147 11.6306
1 29.2741 24.4437 11.63
1 0.874011 25.2378 12.4355
1 1.66771 24.4441 12.4355
1 1.68325 25.2416 11.6286
1 0.893898 24.4471 11.6227
1 2.46141 25.2378 12.4355
1 3.25511 24.4441 12.4355
1 3.2829 25.2263 11.6514
1 2.45168 24.4444 11.6462
1 4.04881 25.2378 12.4355
1 4.84251 24.4441 12.4355
1 4.85209 25.2152 11.6309
1 4.05902 24.4538 11.6458
1 5.63621 25.2378 12.4355
1 6.42991 24.4441 12.4355
1 6.38793 25.2391 11.6328
1 5.62206 24.4183 11.6174
1 7.22361 25.2378 12.4355
1 8.01732 24.4441 12.4355
1 8.01971 25.2393 11.6332
1 7.21288 24.4415 11.6621
1 8.81102 25.2378 12.4355
1 9.60472 24.4441 12.4355
1 9.57441 25.2355 11.6279
1 8.78917 24.4749 11.6329
1 10.3984 25.2378 12.4355
1 11.1921 24.4441 12.4355
1 11.1765 25.2414 11.6268
1 10.408 24.4578 11.6372
1 11.9858 25.2378 12.4355
1 12.7795 24.4441 12.4355
1 12.7693 25.249 11.6479
1 11.9923 24.4505 11.6214
1 13.5732 25.2378 12.4355
1 14.3669 24.4441 12.4355
1 14.2863 25.2507 11.6141
1 13.5347 24.4562 11.632
1 15 23.6504 12.4355
1 15.7937 22.8567 12.4355
1 15.8369 23.6504 11.6445
1 15.0716 22.8602 11.6019
1 16.5874 23.6504 12.4355
1 17.3811 22.8567 12.4355
1 17.3669 23.6233 11.6425
1 16.6156 22.8578 11.6327
1 18.1748 23.6504 12.4355
1 18.9685 22.8567 12.4355
1 18.9629 23.6275 11.6405
1 18.1867 22.8392 11.6745
1 19.7622 23.6504 12.4355
1 20.5559 22.8567 12.4355
1 20.5557 23.6416 11.6526
1 19.775 22.8419 11.6517
1 21.3496 23.6504 12.4355
1 22.1433 22.8567 12.4355
1 22.1554 23.633 11.657
1 21.3393 22.871 11.6408
1 22.937 23.6504 12.4355
1 23.7307 22.8567 12.4355
1 23.7319 23.6501 11.6627
1 22.9272 22.8677 11.6519
1 24.5244 23.6504 12.4355
1 25.3181 22.8567 12.4355
1 25.3244 23.6302 11.6676
1 24.5269 22.8469 11.6514
1 26.1118 23.6504 12.4355
1 26.9055 22.8567 12.4355
1 26.9084 23.656 11.6484
1 26.1192 22.8758 11.644
1 27.6992 23.6504 12.4355
1 28.4929 22.8567 12.4355
1 28.4737 23.6509 11.6635
1 27.6972 22.8641 11.6236
1 29.2866 23.6504 12.4355
1 0.08031 22.8567 12.4355
1 0.0778761 23.6467 11.6552
1 29.2695 22.8917 11.655
1 0.874011 23.6504 12.4355
1 1.66771 22.8567 12.4355
1 1.6834 23.6318 11.6394
1 0.887442 22.882 11.6572
1 2.46141 23.6504 12.4355
1 3.25511 22.8567 12.4355
1 3.26592 23.6357 11.6649
1 2.42376 22.8549 11.6514
1 4.04881 23.6504 12.4355
1 4.84251 22.8567 12.4355
1 4.84156 23.6273 11.6221
1 4.05468 22.8285 11.6227
1 5.63621 23.6504 12.4355
1 6.42991 22.8567 12.4355
1 6.43262 23.6468 11.6178
1 5.63271 22.8596 11.6082
1 7.22361 23.6504 12.4355
1 8.01732 22.8567 12.4355
1 7.98469 23.6927 11.6407
1 7.2291 22.8664 11.6606
1 8.81102 23.6504 12.4355
1 9.60472 22.8567 12.4355
1 9.60495 23.6592 11.6558
1 8.78007 22.8829 11.6698
1 10.3984 23.6504 12.4355
1 11.1921 22.8567 12.4355
1 11.1702 23.6728 11.6365
1 10.4082 22.8793 11.6326
1 11.9858 23.6504 12.4355
1 12.7795 22.8567 12.4355
1 12.7429 23.6358 11.6497
1 11.9593 22.8519 11.6263
1 13.5732 23.6504 12.4355
1 14.3669 22.8567 12.4355
1 14.2941 23.6327 11.6195
1 13.5408 22.8557 11.6249
1 15 22.063 12.4355
1 15.7937 21.2693 12.4355
1 15.8438 22.0646 11.6378
1 15.0619 21.2589 11.5931
1 16.5874 22.063 12.4355
1 17.3811 21.2693 12.4355
1 17.3907 22.075 11.6435
1 16.6143 21.2593 11.6306
1 18.1748 22.063 12.4355
1 18.9685 21.2693 12.4355
1 18.9988 22.0683 11.6546
1 18.1869 21.2637 11.6354
1 19.7622 22.063 12.4355
1 20.5559 21.2693 12.4355
1 20.5385 22.054 11.6315
1 19.7681 21.2725 11.6382
1 21.3496 22.063 12.4355
1 22.1433 21.2693 12.4355
1 22.1324 22.1029 11.6283
1 21.3452 21.2935 11.656
1 22.937 22.063 12.4355
1 23.7307 21.2693 12.4355
1 23.7349 22.0584 11.6498
1 22.9196 21.2685 11.6592
1 24.5244 22.063 12.4355
1 25.3181 21.2693 12.4355
1 25.3363 22.0512 11.651
1 24.5208 21.2936 11.6225
1 26.1118 22.063 12.4355
1 26.9055 21.2693 12.4355
1 26.8792 22.0413 11.6349
1 26.0981 21.2582 11.6541
1 27.6992 22.063 12.4355
1 28.4929 21.2693 12.4355
1 28.4981 22.0616 11.6025
1 27.6966 21.2679 11.6307
1 29.2866 22.063 12.4355
1 0.08031 21.2693 12.4355
1 0.0737334 22.074 11.6374
1 29.271 21.2738 11.6401
1 0.874011 22.063 12.4355
1 1.66771 21.2693 12.4355
1 1.63968 22.0778 11.6583
1 0.876072 21.2448 11.6664
1 2.46141 22.063 12.4355
1 3.25511 21.2693 12.4355
1 3.25184 22.0708 11.6602
1 2.44947 21.292 11.6316
1 4.04881 22.063 12.4355
1 4.84251 21.2693 12.4355
1 4.84601 22.0851 11.6249
1 4.04713 21.3181 11.6285
1 5.63621 22.063 12.4355
1 6.42991 21.2693 12.4355
1 6.42869 22.0562 11.6222
1 5.61818 21.2651 11.6282
1 7.22361 22.063 12.4355
1 8.01732 21.2693 12.4355
1 8.01962 22.038 11.6339
1 7.19655 21.2378 11.6382
1 8.81102 22.063 12.4355
1 9.60472 21.2693 12.4355
1 9.60369 22.091 11.6522
1 8.79689 21.2719 11.6411
1 10.3984 22.063 12.4355
1 11.1921 21.2693 12.4355
1 11.1854 22.0522 11.6452
1 10.3632 21.2595 11.633
1 11.9858 22.063 12.4355
1 12.7795 21.2693 12.4355
1 12.7505 22.0583 11.6635
1 11.9739 21.2865 11.6305
1 13.5732 22.063 12.4355
1 14.3669 21.2693 12.4355
1 14.269 22.0435 11.6037
1 13.562 21.2593 11.6507
1 15 20.4756 12.4355
1 15.7937 19.6819 12.4355
1 15.8339 20.4892 11.636
1 15.0529 19.703 11.605
1 16.5874 20.4756 12.4355
1 17.3811 19.6819 12.4355
1 17.4136 20.4711 11.6113
1 16.6277 19.6859 11.6251
1 18.1748 20.4756 12.4355
1 18.9685 19.6819 12.4355
1 18.9922 20.4664 11.6531
1 18.1983 19.6753 11.6666
1 19.7622 20.4756 12.4355
1 20.5559 19.6819 12.4355
1 20.5837 20.4814 11.6384
1 19.8107 19.6762 11.6365
1 21.3496 20.4756 12.4355
1 22.1433 19.6819 12.4355
1 22.1474 20.4526 11.6399
1 21.351 19.6786 11.6288
1 22.937 20.4756 12.4355
1 23.7307 19.6819 12.4355
1 23.7469 20.4827 11.6469
1 22.9365 19.6893 11.657
1 24.5244 20.4756 12.4355
1 25.3181 19.6819 12.4355
1 25.3283 20.4817 11.6793
1 24.5242 19.6767 11.6496
1 26.1118 20.4756 12.4355
1 26.9055 19.6819 12.4355
1 26.9027 20.4532 11.6498
1 26.1236 19.676 11.6552
1 27.6992 20.4756 12.4355
1 28.4929 19.6819 12.4355
1 28.4993 20.4443 11.6439
1 27.6889 19.666 11.6223
1 29.2866 20.4756 12.4355
1 0.08031 19.6819 12.4355
1 0.0613324 20.4699 11.6243
1 29.3187 19.6691 11.6448
1 0.874011 20.4756 12.4355
1 1.66771 19.6819 12.4355
1 1.68952 20.4831 11.6506
1 0.867265 19.68 11.6546
1 2.46141 20.4756 12.4355
1 3.25511 19.6819 12.4355
1 3.27774 20.4875 11.6417
1 2.50967 19.6818 11.6475
1 4.04881 20.4756 12.4355
1 4.84251 19.6819 12.4355
1 4.82152 20.4786 11.6416
1 4.05646 19.6732 11.6366
1 5.63621 20.4756 12.4355
1 6.42991 19.6819 12.4355
1 6.40755 20.4721 11.668
1 5.64449 19.6869 11.6226
1 7.22361 20.4756 12.4355
1 8.01732 19.6819 12.4355
1 8.01949 20.4552 11.6522
1 7.21325 19.6777 11.6243
1 8.81102 20.4756 12.4355
1 9.60472 19.6819 12.4355
1 9.58585 20.4863 11.6345
1 8.83989 19.6933 11.6272
1 10.3984 20.4756 12.4355
1 11.1921 19.6819 12.4355
1 11.1671 20.4784 11.6364
1 10.3983 19.7286 11.6395
1 11.9858 20.4756 12.4355
1 12.7795 19.6819 12.4355
1 12.7623 20.4762 11.6485
1 11.9841 19.6756 11.6183
1 13.5732 20.4756 12.4355
1 14.3669 19.6819 12.4355
1 14.2937 20.5001 11.634
1 13.5492 19.6945 11.6586
1 15 18.8882 12.4355
1 15.7937 18.0945 12.4355
1 15.8285 18.8949 11.6351
1 15.0606 18.0882 11.5993
1 16.5874 18.8882 12.4355
1 17.3811 18.0945 12.4355
1 17.3634 18.869 11.6347
1 16.5797 18.0963 11.6293
1 18.1748 18.8882 12.4355
1 18.9685 18.0945 12.4355
1 18.9764 18.8904 11.6558
1 18.1679 18.0787 11.6336
1 19.7622 18.8882 12.4355
1 20.5559 18.0945 12.4355
1 20.5661 18.8645 11.6303
1 19.775 18.0835 11.6432
1 21.3496 18.8882 12.4355
1 22.1433 18.0945 12.4355
1 22.1272 18.8798 11.653
1 21.3571 18.081 11.6361
1 22.937 18.8882 12.4355
1 23.7307 18.0945 12.4355
1 23.7293 18.8939 11.6549
1 22.9476 18.0994 11.6254
1 24.5244 18.8882 12.4355
1 25.3181 18.0945 12.4355
1 25.3085 18.8928 11.6237
1 24.523 18.0988 11.612
1 26.1118 18.8882 12.4355
1 26.9055 18.0945 12.4355
1 26.9041 18.8718 11.6618
1 26.115 18.1052 11.6457
1 27.6992 18.8882 12.4355
1 28.4929 18.0945 12.4355
1 28.5083 18.8803 11.6365
1 27.6886 18.0951 11.6421
1 29.2866 18.8882 12.4355
1 0.08031 18.0945 12.4355
1 0.084463 18.877 11.6435
1 29.2904 18.0851 11.6344
1 0.874011 18.8882 12.4355
1 1.66771 18.0945 12.4355
1 1.6847 18.9031 11.6434
1 0.861365 18.1056 11.6312
1 2.46141 18.8882 12.4355
1 3.25511 18.0945 12.4355
1 3.26263 18.8883 11.6519
1 2.4596 18.0743 11.6276
1 4.04881 18.8882 12.4355
1 4.84251 18.0945 12.4355
1 4.85301 18.9017 11.6495
1 4.03427 18.1142 11.649
1 5.63621 18.8882 12.4355
1 6.42991 18.0945 12.4355
1 6.42519 18.8725 11.6231
1 5.63066 18.0744 11.6304
1 7.22361 18.8882 12.4355
1 8.01732 18.0945 12.4355
1 8.03645 18.9012 11.6338
1 7.24089 18.1276 11.6293
1 8.81102 18.8882 12.4355
1 9.60472 18.0945 12.4355
1 9.62862 18.9076 11.6039
1 8.8003 18.1205 11.647
1 10.3984 18.8882 12.4355
1 11.1921 18.0945 12.4355
1 11.1871 18.8905 11.6677
1 10.3849 18.1034 11.6467
1 11.9858 18.8882 12.4355
1 12.7795 18.0945 12.4355
1 12.7622 18.8844 11.637
1 11.9703 18.1097 11.6433
1 13.5732 18.8882 12.4355
1 14.3669 18.0945 12.4355
1 14.2946 18.8874 11.5888
1 13.5319 18.0863 11.6495
1 15 17.3008 12.4355
1 15.7937 16.5071 12.4355
1 15.8399 17.304 11.6548
1 15.083 16.5095 11.5878
1 16.5874 17.3008 12.4355
1 17.3811 16.5071 12.4355
1 17.3571 17.2932 11.6389
1 16.6044 16.5103 11.6658
1 18.1748 17.3008 12.4355
1 18.9685 16.5071 12.4355
1 18.9484 17.2962 11.6843
1 18.1681 16.5059 11.6487
1 19.7622 17.3008 12.4355
1 20.5559 16.5071 12.4355
1 20.5504 17.2988 11.6564
1 19.7397 16.4671 11.6288
1 21.3496 17.3008 12.4355
1 22.1433 16.5071 12.4355
1 22.1564 17.2871 11.6287
1 21.3719 16.5173 11.6386
1 22.937 17.3008 12.4355
1 23.7307 16.5071 12.4355
1 23.7336 17.2961 11.6415
1 22.9349 16.5089 11.6402
1 24.5244 17.3008 12.4355
1 25.3181 16.5071 12.4355
1 25.3183 17.3063 11.6681
1 24.5431 16.5131 11.6545
1 26.1118 17.3008 12.4355
1 26.9055 16.5071 12.4355
1 26.9001 17.3116 11.613
1 26.1031 16.5041 11.6401
1 27.6992 17.3008 12.4355
1 28.4929 16.5071 12.4355
1 28.4879 17.3153 11.6265
1 27.6903 16.5264 11.6535
1 29.2866 17.3008 12.4355
1 0.08031 16.5071 12.4355
1 0.0654138 17.311 11.6405
1 29.2899 16.5018 11.6352
1 0.874011 17.3008 12.4355
1 1.66771 16.5071 12.4355
1 1.64169 17.2947 11.6523
1 0.864906 16.5011 11.635
1 2.46141 17.3008 12.4355
1 3.25511 16.5071 12.4355
1 3.27279 17.3051 11.6611
1 2.46051 16.5147 11.624
1 4.04881 17.3008 12.4355
1 4.84251 16.5071 12.4355
1 4.86887 17.3127 11.6645
1 4.05377 16.4988 11.6479
1 5.63621 17.3008 12.4355
1 6.42991 16.5071 12.4355
1 6.43395 17.3021 11.6672
1 5.63494 16.5009 11.6329
1 7.22361 17.3008 12.4355
1 8.01732 16.5071 12.4355
1 8.03223 17.3023 11.6342
1 7.25107 16.5199 11.652
1 8.81102 17.3008 12.4355
1 9.60472 16.5071 12.4355
1 9.59982 17.3001 11.6514
1 8.82011 16.5113 11.6371
1 10.3984 17.3008 12.4355
1 11.1921 16.5071 12.4355
1 11.1515 17.3083 11.6383
1 10.3852 16.5044 11.6482
1 11.9858 17.3008 12.4355
1 12.7795 16.5071 12.4355
1 12.759 17.2906 11.6338
1 11.954 16.5082 11.6461
1 13.5732 17.3008 12.4355
1 14.3669 16.5071 12.4355
1 14.3062 17.2646 11.5848
1 13.5396 16.5004 11.6252
1 15 15.7134 12.4355
1 15.7937 14.9197 12.4355
1 15.8222 15.7227 11.6181
1 15.0804 14.9149 11.6105
1 16.5874 15.7134 12.4355
1 17.3811 14.9197 12.4355
1 17.3969 15.682 11.6507
1 16.6249 14.9306 11.6452
1 18.1748 15.7134 12.4355
1 18.9685 14.9197 12.4355
1 18.9446 15.7006 11.632
1 18.187 14.9295 11.6744
1 19.7622 15.7134 12.4355
1 20.5559 14.9197 12.4355
1 20.5517 15.7259 11.6523
1 19.7433 14.9236 11.6645
1 21.3496 15.7134 12.4355
1 22.1433 14.9197 12.4355
1 22.1563 15.7118 11.6472
1 21.3584 14.9319 11.6641
1 22.937 15.7134 12.4355
1 23.7307 14.9197 12.4355
1 23.7425 15.7207 11.6648
1 22.9602 14.9194 11.6623
1 24.5244 15.7134 12.4355
1 25.3181 14.9197 12.4355
1 25.3008 15.7307 11.6362
1 24.5127 14.9229 11.6338
1 26.1118 15.7134 12.4355
1 26.9055 14.9197 12.4355
1 26.9185 15.7334 11.6382
1 26.0842 14.902 11.6657
1 27.6992 15.7134 12.4355
1 28.4929 14.9197 12.4355
1 28.5186 15.7065 11.6537
1 27.6967 14.9237 11.6487
1 29.2866 15.7134 12.4355
1 0.08031 14.9197 12.4355
1 0.0871216 15.72 11.6465
1 29.2887 14.9359 11.6651
1 0.874011 15.7134 12.4355
1 1.66771 14.9197 12.4355
1 1.66177 15.6985 11.6621
1 0.867061 14.8949 11.6554
1 2.46141 15.7134 12.4355
1 3.25511 14.9197 12.4355
1 3.25271 15.7173 11.6519
1 2.46053 14.8978 11.665
1 4.04881 15.7134 12.4355
1 4.84251 14.9197 12.4355
1 4.85834 15.7177 11.6599
1 4.04511 14.9416 11.6321
1 5.63621 15.7134 12.4355
1 6.42991 14.9197 12.4355
1 6.45838 15.7467 11.6359
1 5.63254 14.9317 11.6528
1 7.22361 15.7134 12.4355
1 8.01732 14.9197 12.4355
1 8.0228 15.7098 11.6286
1 7.23007 14.9321 11.6303
1 8.81102 15.7134 12.4355
1 9.60472 14.9197 12.4355
1 9.59828 15.6962 11.6565
1 8.81201 14.9209 11.6412
1 10.3984 15.7134 12.4355
1 11.1921 14.9197 12.4355
1 11.18 15.7013 11.6366
1 10.3851 14.8993 11.6555
1 11.9858 15.7134 12.4355
1 12.7795 14.9197 12.4355
1 12.7686 15.7091 11.639
1 11.9742 14.9214 11.6298
1 13.5732 15.7134 12.4355
1 14.3669 14.9197 12.4355
1 14.3032 15.7035 11.5944
1 13.5497 14.9333 11.6465
1 15 14.126 12.4355
1 15.7937 13.3323 12.4355
1 15.8537 14.1127 11.6312
1 15.0517 13.3316 11.6128
1 16.5874 14.126 12.4355
1 17.3811 13.3323 12.4355
1 17.3924 14.1419 11.6298
1 16.6057 13.3164 11.6225
1 18.1748 14.126 12.4355
1 18.9685 13.3323 12.4355
1 18.9522 14.1277 11.6377
1 18.1716 13.3231 11.6187
1 19.7622 14.126 12.4355
1 20.5559 13.3323 12.4355
1 20.5593 14.1261 11.6695
1 19.7697 13.3489 11.6443
1 21.3496 14.126 12.4355
1 22.1433 13.3323 12.4355
1 22.1634 14.1353 11.6477
1 21.336 13.3419 11.6593
1 22.937 14.126 12.4355
1 23.7307 13.3323 12.4355
1 23.7248 14.1223 11.6378
1 22.9394 13.3498 11.6391
1 24.5244 14.126 12.4355
1 25.3181 13.3323 12.4355
1 25.3131 14.0917 11.6335
1 24.5226 13.3288 11.6301
1 26.1118 14.126 12.4355
1 26.9055 13.3323 12.4355
1 26.875 14.1257 11.6538
1 26.1304 13.3321 11.6524
1 27.6992 14.126 12.4355
1 28.4929 13.3323 12.4355
1 28.514 14.1243 11.6342
1 27.6714 13.3435 11.6317
1 29.2866 14.126 12.4355
1 0.08031 13.3323 12.4355
1 0.07418 14.1266 11.6305
1 29.2812 13.3468 11.6327
1 0.874011 14.126 12.4355
1 1.66771 13.3323 12.4355
1 1.68986 14.1405 11.6436
1 0.889255 13.3564 11.6418
1 2.46141 14.126 12.4355
1 3.25511 13.3323 12.4355
1 3.26635 14.138 11.6142
1 2.47969 13.348 11.6444
1 4.04881 14.126 12.4355
1 4.84251 13.3323 12.4355
1 4.82882 14.1406 11.6297
1 4.05671 13.357 11.6491
1 5.63621 14.126 12.4355
1 6.42991 13.3323 12.4355
1 6.41876 14.1294 11.6759
1 5.64643 13.3569 11.6258
1 7.22361 14.126 12.4355
1 8.01732 13.3323 12.4355
1 8.01292 14.1299 11.6356
1 7.23367 13.3305 11.6673
1 8.81102 14.126 12.4355
1 9.60472 13.3323 12.4355
1 9.58151 14.1444 11.6407
1 8.82377 13.3397 11.6549
1 10.3984 14.126 12.4355
1 11.1921 13.3323 12.4355
1 11.1648 14.1498 11.6559
1 10.3918 13.3537 11.6261
1 11.9858 14.126 12.4355
1 12.7795 13.3323 12.4355
1 12.7787 14.129 11.6422
1 11.9689 13.3493 11.6335
1 13.5732 14.126 12.4355
1 14.3669 13.3323 12.4355
1 14.264 14.1443 11.5899
1 13.545 13.3278 11.6309
1 15 12.5386 12.4355
1 15.7937 11.7449 12.4355
1 15.8487 12.5341 11.618
1 15.0738 11.7352 11.6076
1 16.5874 12.5386 12.4355
1 17.3811 11.7449 12.4355
1 17.383 12.5513 11.6304
1 16.6398 11.7492 11.6326
1 18.1748 12.5386 12.4355
1 18.9685 11.7449 12.4355
1 18.972 12.5616 11.6505
1 18.1752 11.7537 11.6641
1 19.7622 12.5386 12.4355
1 20.5559 11.7449 12.4355
1 20.5783 12.5438 11.6344
1 19.7801 11.7378 11.6605
1 21.3496 12.5386 12.4355
1 22.1433 11.7449 12.4355
1 22.1574 12.539 11.6586
1 21.3771 11.7419 11.6322
1 22.937 12.5386 12.4355
1 23.7307 11.7449 12.4355
1 23.7375 12.5511 11.6785
1 22.9676 11.7398 11.6508
1 24.5244 12.5386 12.4355
1 25.3181 11.7449 12.4355
1 25.3313 12.5339 11.6522
1 24.517 11.7419 11.646
1 26.1118 12.5386 12.4355
1 26.9055 11.7449 12.4355
1 26.9042 12.5504 11.6464
1 26.1017 11.738 11.6413
1 27.6992 12.5386 12.4355
1 28.4929 11.7449 12.4355
1 28.5017 12.5403 11.633
1 27.6983 11.7477 11.6318
1 29.2866 12.5386 12.4355
1 0.08031 11.7449 12.4355
1 0.100506 12.5306 11.6624
1 29.2896 11.7479 11.6532
1 0.874011 12.5386 12.4355
1 1.66771 11.7449 12.4355
1 1.67758 12.5632 11.6459
1 0.87422 11.7336 11.651
1 2.46141 12.5386 12.4355
1 3.25511 11.7449 12.4355
1 3.27026 12.5501 11.6284
1 2.44736 11.7393 11.6383
1 4.04881 12.5386 12.4355
1 4.84251 11.7449 12.4355
1 4.84668 12.5585 11.6584
1 4.04738 11.7345 11.6712
1 5.63621 12.5386 12.4355
1 6.42991 11.7449 12.4355
1 6.41548 12.5494 11.6341
1 5.63322 11.7464 11.6516
1 7.22361 12.5386 12.4355
1 8.01732 11.7449 12.4355
1 8.00864 12.5407 11.6422
1 7.20973 11.76 11.6451
1 8.81102 12.5386 12.4355
1 9.60472 11.7449 12.4355
1 9.59678 12.5446 11.6233
1 8.79708 11.7607 11.6712
1 10.3984 12.5386 12.4355
1 11.1921 11.7449 12.4355
1 11.1907 12.5513 11.6378
1 10.394 11.7599 11.6432
1 11.9858 12.5386 12.4355
1 12.7795 11.7449 12.4355
1 12.7776 12.5437 11.6393
1 11.9587 11.733 11.6654
1 13.5732 12.5386 12.4355
1 14.3669 11.7449 12.4355
1 14.3076 12.5386 11.6221
1 13.5586 11.7668 11.6518
1 15 10.9512 12.4355
1 15.7937 10.1575 12.4355
1 15.8265 10.9407 11.6166
1 15.0544 10.1649 11.6168
1 16.5874 10.9512 12.4355
1 17.3811 10.1575 12.4355
1 17.4162 10.954 11.6409
1 16.6075 10.1592 11.638
1 18.1748 10.9512 12.4355
1 18.9685 10.1575 12.4355
1 19.0038 10.9427 11.6533
1 18.1744 10.1475 11.6517
1 19.7622 10.9512 12.4355
1 20.5559 10.1575 12.4355
1 20.5494 10.9524 11.64
1 19.7624 10.1628 11.6349
1 21.3496 10.9512 12.4355
1 22.1433 10.1575 12.4355
1 22.1416 10.9454 11.6422
1 21.329 10.1515 11.639
1 22.937 10.9512 12.4355
1 23.7307 10.1575 12.4355
1 23.7107 10.9518 11.6479
1 22.9279 10.1561 11.5991
1 24.5244 10.9512 12.4355
1 25.3181 10.1575 12.4355
1 25.3138 10.9232 11.6603
1 24.5328 10.1426 11.6238
1 26.1118 10.9512 12.4355
1 26.9055 10.1575 12.4355
1 26.8884 10.9411 11.6179
1 26.1107 10.157 11.6531
1 27.6992 10.9512 12.4355
1 28.4929 10.1575 12.4355
1 28.5005 10.9489 11.6537
1 27.7019 10.1618 11.6411
1 29.2866 10.9512 12.4355
1 0.08031 10.1575 12.4355
1 0.0739571 10.9578 11.6623
1 29.2926 10.1689 11.6464
1 0.874011 10.9512 12.4355
1 1.66771 10.1575 12.4355
1 1.6586 10.9472 11.6312
1 0.893038 10.1709 11.6628
1 2.46141 10.9512 12.4355
1 3.25511 10.1575 12.4355
1 3.21308 10.9485 11.6409
1 2.45075 10.1635 11.6228
1 4.04881 10.9512 12.4355
1 4.84251 10.1575 12.4355
1 4.82164 10.9301 11.6566
1 4.03727 10.1781 11.6597
1 5.63621 10.9512 12.4355
1 6.42991 10.1575 12.4355
1 6.42383 10.9695 11.6501
1 5.64002 10.1651 11.617
1 7.22361 10.9512 12.4355
1 8.01732 10.1575 12.4355
1 8.0261 10.9195 11.6601
1 7.23349 10.1362 11.6411
1 8.81102 10.9512 12.4355
1 9.60472 10.1575 12.4355
1 9.59386 10.9478 11.6356
1 8.82312 10.1356 11.6111
1 10.3984 10.9512 12.4355
1 11.1921 10.1575 12.4355
1 11.1681 10.9392 11.658
1 10.408 10.1594 11.6536
1 11.9858 10.9512 12.4355
1 12.7795 10.1575 12.4355
1 12.7895 10.9609 11.6551
1 11.9685 10.1643 11.6386
1 13.5732 10.9512 12.4355
1 14.3669 10.1575 12.4355
1 14.2745 10.9408 11.6053
1 13.5581 10.1159 11.6169
1 15 9.36379 12.4355
1 15.7937 8.57009 12.4355
1 15.8418 9.38927 11.6574
1 15.0789 8.57385 11.608
1 16.5874 9.36379 12.4355
1 17.3811 8.57009 12.4355
1 17.3985 9.36309 11.6536
1 16.6206 8.57558 11.665
1 18.1748 9.36379 12.4355
1 18.9685 8.57009 12.4355
1 18.9582 9.38256 11.6726
1 18.2128 8.54705 11.6318
1 19.7622 9.36379 12.4355
1 20.5559 8.57009 12.4355
1 20.5315 9.38008 11.6288
1 19.7365 8.55595 11.6417
1 21.3496 9.36379 12.4355
1 22.1433 8.57009 12.4355
1 22.1612 9.36515 11.6192
1 21.3414 8.56464 11.6586
1 22.937 9.36379 12.4355
1 23.7307 8.57009 12.4355
1 23.7365 9.34921 11.643
1 22.9548 8.58108 11.6212
1 24.5244 9.36379 12.4355
1 25.3181 8.57009 12.4355
1 25.3286 9.35584 11.6626
1 24.5268 8.56458 11.668
1 26.1118 9.36379 12.4355
1 26.9055 8.57009 12.4355
1 26.9183 9.37995 11.6567
1 26.1295 8.54702 11.6563
1 27.6992 9.36379 12.4355
1 28.4929 8.57009 12.4355
1 28.5182 9.36124 11.6506
1 27.7174 8.56512 11.6491
1 29.2866 9.36379 12.4355
1 0.08031 8.57009 12.4355
1 0.0872013 9.36022 11.6453
1 29.2796 8.54654 11.6524
1 0.874011 9.36379 12.4355
1 1.66771 8.57009 12.4355
1 1.66686 9.37491 11.643
1 0.878374 8.56493 11.6441
1 2.46141 9.36379 12.4355
1 3.25511 8.57009 12.4355
1 3.25226 9.38481 11.6477
1 2.4853 8.58756 11.6262
1 4.04881 9.36379 12.4355
1 4.84251 8.57009 12.4355
1 4.85948 9.35199 11.6599
1 4.04577 8.58053 11.6331
1 5.63621 9.36379 12.4355
1 6.42991 8.57009 12.4355
1 6.43406 9.36516 11.6568
1 5.65949 8.57597 11.6538
1 7.22361 9.36379 12.4355
1 8.01732 8.57009 12.4355
1 8.03435 9.35538 11.6384
1 7.23328 8.5681 11.6431
1 8.81102 9.36379 12.4355
1 9.60472 8.57009 12.4355
1 9.59965 9.36325 11.6356
1 8.80793 8.60456 11.6396
1 10.3984 9.36379 12.4355
1 11.1921 8.57009 12.4355
1 11.1934 9.33466 11.6436
1 10.3895 8.55954 11.6482
1 11.9858 9.36379 12.4355
1 12.7795 8.57009 12.4355
1 12.7766 9.3542 11.6406
1 11.9735 8.56199 11.6572
1 13.5732 9.36379 12.4355
1 14.3669 8.57009 12.4355
1 14.3096 9.36626 11.6043
1 13.5464 8.58183 11.6544
1 15 7.77639 12.4355
1 15.7937 6.98268 12.4355
1 15.8201 7.80422 11.6332
1 15.0871 6.98614 11.6264
1 16.5874 7.77639 12.4355
1 17.3811 6.98268 12.4355
1 17.3974 7.78138 11.6516
1 16.5838 6.94687 11.6521
1 18.1748 7.77639 12.4355
1 18.9685 6.98268 12.4355
1 18.9869 7.76203 11.6303
1 18.1743 6.9794 11.6723
1 19.7622 7.77639 12.4355
1 20.5559 6.98268 12.4355
1 20.5333 7.8022 11.6007
1 19.7541 6.96294 11.626
1 21.3496 7.77639 12.4355
1 22.1433 6.98268 12.4355
1 22.1458 7.7938 11.6536
1 21.3469 6.99022 11.6396
1 22.937 7.77639 12.4355
1 23.7307 6.98268 12.4355
1 23.7546 7.76762 11.6315
1 22.9305 6.99965 11.6603
1 24.5244 7.77639 12.4355
1 25.3181 6.98268 12.4355
1 25.3272 7.78793 11.6609
1 24.5407 6.95788 11.6261
1 26.1118 7.77639 12.4355
1 26.9055 6.98268 12.4355
1 26.9095 7.76879 11.6508
1 26.1175 6.97849 11.6191
1 27.6992 7.77639 12.4355
1 28.4929 6.98268 12.4355
1 28.4928 7.78188 11.6333
1 27.6984 6.99016 11.6412
1 29.2866 7.77639 12.4355
1 0.08031 6.98268 12.4355
1 0.0706861 7.76752 11.6616
1 29.2837 6.98269 11.6421
1 0.874011 7.77639 12.4355
1 1.66771 6.98268 12.4355
1 1.66735 7.79562 11.6388
1 0.88179 6.98013 11.6516
1 2.46141 7.77639 12.4355
1 3.25511 6.98268 12.4355
1 3.24535 7.77225 11.6529
1 2.44002 6.98804 11.6524
1 4.04881 7.77639 12.4355
1 4.84251 6.98268 12.4355
1 4.85786 7.78283 11.6295
1 4.05843 7.00551 11.6479
1 5.63621 7.77639 12.4355
1 6.42991 6.98268 12.4355
1 6.42274 7.77462 11.6167
1 5.62785 6.99367 11.6148
1 7.22361 7.77639 12.4355
1 8.01732 6.98268 12.4355
1 8.03605 7.79484 11.6781
1 7.23148 7.00325 11.6359
1 8.81102 7.77639 12.4355
1 9.60472 6.98268 12.4355
1 9.57581 7.78822 11.622
1 8.78761 6.98948 11.6482
1 10.3984 7.77639 12.4355
1 11.1921 6.98268 12.4355
1 11.1875 7.77437 11.6397
1 10.4068 7.00977 11.6464
1 11.9858 7.77639 12.4355
1 12.7795 6.98268 12.4355
1 12.7593 7.7426 11.6728
1 11.9723 6.9907 11.6499
1 13.5732 7.77639 12.4355
1 14.3669 6.98268 12.4355
1 14.2828 7.77378 11.6267
1 13.5765 6.98928 11.6428
1 15 6.18898 12.4355
1 15.7937 5.39528 12.4355
1 15.8299 6.16658 11.6569
1 15.072 5.3902 11.6107
1 16.5874 6.18898 12.4355
1 17.3811 5.39528 12.4355
1 17.3991 6.18212 11.644
1 16.5942 5.40362 11.6189
1 18.1748 6.18898 12.4355
1 18.9685 5.39528 12.4355
1 18.9504 6.18214 11.6196
1 18.1888 5.36078 11.6503
1 19.7622 6.18898 12.4355
1 20.5559 5.39528 12.4355
1 20.5566 6.19441 11.6448
1 19.7574 5.41443 11.6479
1 21.3496 6.18898 12.4355
1 22.1433 5.39528 12.4355
1 22.15 6.21435 11.648