9376
Atoms. Timestep: 4000000
1 1.5 3.55271e-15 10.6605
1 2.2937 29.2063 10.6605
1 2.3471 29.9201 9.81792
1 1.55937 29.1745 9.8614
1 3.0874 3.55271e-15 10.6605
1 3.8811 29.2063 10.6605
1 3.90616 29.9114 9.81568
1 3.06265 29.1914 9.84783
1 4.6748 3.55271e-15 10.6605
1 5.4685 29.2063 10.6605
1 5.48203 29.9269 9.83943
1 4.69157 29.2001 9.84325
1 6.2622 3.55271e-15 10.6605
1 7.0559 29.2063 10.6605
1 7.07199 29.9292 9.83036
1 6.28565 29.1503 9.8649
1 7.8496 3.55271e-15 10.6605
1 8.6433 29.2063 10.6605
1 8.6421 29.9389 9.82064
1 7.84382 29.1707 9.86759
1 9.43701 3.55271e-15 10.6605
1 10.2307 29.2063 10.6605
1 10.2122 29.9435 9.79085
1 9.41686 29.1894 9.86173
1 11.0244 3.55271e-15 10.6605
1 11.8181 29.2063 10.6605
1 11.8077 29.9313 9.83667
1 10.9898 29.1757 9.85765
1 12.6118 3.55271e-15 10.6605
1 13.4055 29.2063 10.6605
1 13.4044 29.9436 9.83021
1 12.6042 29.1945 9.87024
1 14.1992 3.55271e-15 10.6605
1 14.9929 29.2063 10.6605
1 15.002 29.9416 9.84223
1 14.2068 29.1674 9.85975
1 15.7866 3.55271e-15 10.6605
1 16.5803 29.2063 10.6605
1 16.5722 29.9086 9.82784
1 15.7966 29.1535 9.82116
1 17.374 3.55271e-15 10.6605
1 18.1677 29.2063 10.6605
1 18.1698 29.9279 9.84295
1 17.3786 29.1623 9.85794
1 18.9614 3.55271e-15 10.6605
1 19.7551 29.2063 10.6605
1 19.7517 29.9249 9.83993
1 18.9424 29.1747 9.84033
1 20.5488 3.55271e-15 10.6605
1 21.3425 29.2063 10.6605
1 21.3541 29.946 9.85296
1 20.5607 29.1805 9.87296
1 22.1362 3.55271e-15 10.6605
1 22.9299 29.2063 10.6605
1 22.9395 29.9234 9.83427
1 22.1477 29.1902 9.86144
1 23.7236 3.55271e-15 10.6605
1 24.5173 29.2063 10.6605
1 24.5286 29.9244 9.82379
1 23.7447 29.1808 9.85304
1 25.311 3.55271e-15 10.6605
1 26.1047 29.2063 10.6605
1 26.1259 29.9382 9.82325
1 25.2824 29.1584 9.8504
1 26.8984 3.55271e-15 10.6605
1 27.6921 29.2063 10.6605
1 27.6955 29.9102 9.82702
1 26.9025 29.178 9.86602
1 28.4858 3.55271e-15 10.6605
1 29.2795 29.2063 10.6605
1 29.2718 29.9416 9.83599
1 28.4698 29.1922 9.85266
1 0.0732189 3.55271e-15 10.6605
1 0.866919 29.2063 10.6605
1 0.778017 29.9216 9.79612
1 0.0525584 29.1893 9.83898
1 1.5 28.4126 10.6605
1 2.2937 27.6189 10.6605
1 2.33769 28.3888 9.86422
1 1.54234 27.6287 9.84991
1 3.0874 28.4126 10.6605
1 3.8811 27.6189 10.6605
1 3.892 28.3867 9.85701
1 3.12214 27.6173 9.85825
1 4.6748 28.4126 10.6605
1 5.4685 27.6189 10.6605
1 5.47302 28.3902 9.89192
1 4.68566 27.5931 9.87491
1 6.2622 28.4126 10.6605
1 7.0559 27.6189 10.6605
1 7.06007 28.3901 9.86906
1 6.27138 27.615 9.88379
1 7.8496 28.4126 10.6605
1 8.6433 27.6189 10.6605
1 8.64208 28.4044 9.85252
1 7.8708 27.6234 9.87549
1 9.43701 28.4126 10.6605
1 10.2307 27.6189 10.6605
1 10.214 28.3818 9.85062
1 9.4473 27.6255 9.85742
1 11.0244 28.4126 10.6605
1 11.8181 27.6189 10.6605
1 11.8248 28.411 9.85161
1 11.0514 27.5868 9.89236
1 12.6118 28.4126 10.6605
1 13.4055 27.6189 10.6605
1 13.3885 28.3967 9.87473
1 12.6092 27.5932 9.85802
1 14.1992 28.4126 10.6605
1 14.9929 27.6189 10.6605
1 14.9866 28.401 9.84652
1 14.2166 27.6146 9.87112
1 15.7866 28.4126 10.6605
1 16.5803 27.6189 10.6605
1 16.5703 28.4022 9.86654
1 15.8196 27.6158 9.87505
1 17.374 28.4126 10.6605
1 18.1677 27.6189 10.6605
1 18.1906 28.3788 9.86464
1 17.3795 27.6043 9.86349
1 18.9614 28.4126 10.6605
1 19.7551 27.6189 10.6605
1 19.7488 28.3978 9.85272
1 18.9673 27.57 9.87581
1 20.5488 28.4126 10.6605
1 21.3425 27.6189 10.6605
1 21.3423 28.3824 9.86819
1 20.545 27.5888 9.88157
1 22.1362 28.4126 10.6605
1 22.9299 27.6189 10.6605
1 22.9384 28.3777 9.84801
1 22.1254 27.606 9.86169
1 23.7236 28.4126 10.6605
1 24.5173 27.6189 10.6605
1 24.5043 28.4037 9.85961
1 23.7407 27.614 9.86822
1 25.311 28.4126 10.6605
1 26.1047 27.6189 10.6605
1 26.0768 28.3983 9.91747
1 25.3103 27.6442 9.86915
1 26.8984 28.4126 10.6605
1 27.6921 27.6189 10.6605
1 27.7076 28.4248 9.83841
1 26.8887 27.622 9.85995
1 28.4858 28.4126 10.6605
1 29.2795 27.6189 10.6605
1 29.2778 28.386 9.84853
1 28.4438 27.5964 9.85761
1 0.0732189 28.4126 10.6605
1 0.866919 27.6189 10.6605
1 0.78399 28.3901 9.86103
1 0.053424 27.599 9.84402
1 1.5 26.8252 10.6605
1 2.2937 26.0315 10.6605
1 2.2955 26.845 9.87741
1 1.54114 26.0665 9.84709
1 3.0874 26.8252 10.6605
1 3.8811 26.0315 10.6605
1 3.89881 26.8193 9.8805
1 3.11298 26.0312 9.87071
1 4.6748 26.8252 10.6605
1 5.4685 26.0315 10.6605
1 5.50606 26.8277 9.85135
1 4.68456 26.0097 9.84014
1 6.2622 26.8252 10.6605
1 7.0559 26.0315 10.6605
1 7.06243 26.8473 9.8763
1 6.25555 26.0434 9.86284
1 7.8496 26.8252 10.6605
1 8.6433 26.0315 10.6605
1 8.65372 26.8343 9.85227
1 7.84169 26.0377 9.85768
1 9.43701 26.8252 10.6605
1 10.2307 26.0315 10.6605
1 10.2228 26.8212 9.85205
1 9.43931 26.0244 9.88105
1 11.0244 26.8252 10.6605
1 11.8181 26.0315 10.6605
1 11.8272 26.8059 9.86929
1 11.0409 26.0222 9.85769
1 12.6118 26.8252 10.6605
1 13.4055 26.0315 10.6605
1 13.3885 26.8281 9.86596
1 12.6229 26.0005 9.87348
1 14.1992 26.8252 10.6605
1 14.9929 26.0315 10.6605
1 14.9975 26.8331 9.87141
1 14.2006 26.0333 9.86686
1 15.7866 26.8252 10.6605
1 16.5803 26.0315 10.6605
1 16.6059 26.8256 9.86273
1 15.8171 26.0199 9.86623
1 17.374 26.8252 10.6605
1 18.1677 26.0315 10.6605
1 18.1826 26.8023 9.89078
1 17.3906 25.9983 9.87854
1 18.9614 26.8252 10.6605
1 19.7551 26.0315 10.6605
1 19.7388 26.8074 9.86183
1 18.9482 26.0302 9.8789
1 20.5488 26.8252 10.6605
1 21.3425 26.0315 10.6605
1 21.3373 26.8133 9.86872
1 20.5587 26.027 9.86428
1 22.1362 26.8252 10.6605
1 22.9299 26.0315 10.6605
1 22.9203 26.8091 9.8942
1 22.1462 26.0223 9.86973
1 23.7236 26.8252 10.6605
1 24.5173 26.0315 10.6605
1 24.5015 26.8128 9.87311
1 23.7323 26.0285 9.88264
1 25.311 26.8252 10.6605
1 26.1047 26.0315 10.6605
1 26.0887 26.8086 9.88461
1 25.3115 26.0385 9.90371
1 26.8984 26.8252 10.6605
1 27.6921 26.0315 10.6605
1 27.6822 26.8023 9.88378
1 26.8894 26.0386 9.87258
1 28.4858 26.8252 10.6605
1 29.2795 26.0315 10.6605
1 29.2665 26.8062 9.85284
1 28.4425 26.0294 9.88293
1 0.0732189 26.8252 10.6605
1 0.866919 26.0315 10.6605
1 0.778065 26.8558 9.81758
1 0.0322126 26.0191 9.85868
1 1.5 25.2378 10.6605
1 2.2937 24.4441 10.6605
1 2.33388 25.242 9.85703
1 1.56864 24.4317 9.83543
1 3.0874 25.2378 10.6605
1 3.8811 24.4441 10.6605
1 3.89068 25.2568 9.86081
1 3.13004 24.4411 9.87071
1 4.6748 25.2378 10.6605
1 5.4685 24.4441 10.6605
1 5.47899 25.2414 9.86068
1 4.69079 24.4526 9.88194
1 6.2622 25.2378 10.6605
1 7.0559 24.4441 10.6605
1 7.07171 25.2507 9.87154
1 6.28684 24.4399 9.90412
1 7.8496 25.2378 10.6605
1 8.6433 24.4441 10.6605
1 8.63206 25.2434 9.85982
1 7.87639 24.4369 9.87025
1 9.43701 25.2378 10.6605
1 10.2307 24.4441 10.6605
1 10.2532 25.233 9.86478
1 9.43628 24.4481 9.87374
1 11.0244 25.2378 10.6605
1 11.8181 24.4441 10.6605
1 11.8276 25.2109 9.87229
1 11.0211 24.4279 9.86455
1 12.6118 25.2378 10.6605
1 13.4055 24.4441 10.6605
1 13.4158 25.2384 9.87261
1 12.6544 24.4094 9.86814
1 14.1992 25.2378 10.6605
1 14.9929 24.4441 10.6605
1 14.9927 25.2402 9.8754
1 14.1684 24.4466 9.87388
1 15.7866 25.2378 10.6605
1 16.5803 24.4441 10.6605
1 16.5597 25.2446 9.87492
1 15.7847 24.4564 9.87981
1 17.374 25.2378 10.6605
1 18.1677 24.4441 10.6605
1 18.191 25.2438 9.87151
1 17.3804 24.451 9.86439
1 18.9614 25.2378 10.6605
1 19.7551 24.4441 10.6605
1 19.746 25.2246 9.84314
1 18.9532 24.4263 9.87003
1 20.5488 25.2378 10.6605
1 21.3425 24.4441 10.6605
1 21.3133 25.2348 9.84851
1 20.5684 24.4471 9.86335
1 22.1362 25.2378 10.6605
1 22.9299 24.4441 10.6605
1 22.9389 25.2119 9.85222
1 22.1363 24.421 9.8591
1 23.7236 25.2378 10.6605
1 24.5173 24.4441 10.6605
1 24.5358 25.2595 9.86033
1 23.7459 24.4386 9.86009
1 25.311 25.2378 10.6605
1 26.1047 24.4441 10.6605
1 26.0984 25.2493 9.86905
1 25.3263 24.4688 9.83989
1 26.8984 25.2378 10.6605
1 27.6921 24.4441 10.6605
1 27.6799 25.2396 9.8756
1 26.8943 24.4327 9.88114
1 28.4858 25.2378 10.6605
1 29.2795 24.4441 10.6605
1 29.242 25.2298 9.86021
1 28.4733 24.4269 9.85223
1 0.0732189 25.2378 10.6605
1 0.866919 24.4441 10.6605
1 0.783825 25.2524 9.83378
1 0.0310279 24.4278 9.85621
1 1.5 23.6504 10.6605
1 2.2937 22.8567 10.6605
1 2.35197 23.6284 9.87127
1 1.55383 22.8609 9.84646
1 3.0874 23.6504 10.6605
1 3.8811 22.8567 10.6605
1 3.89439 23.6629 9.87944
1 3.11435 22.8443 9.8411
1 4.6748 23.6504 10.6605
1 5.4685 22.8567 10.6605
1 5.47429 23.6796 9.8737
1 4.69353 22.8601 9.86179
1 6.2622 23.6504 10.6605
1 7.0559 22.8567 10.6605
1 7.05494 23.641 9.85904
1 6.28501 22.8574 9.87161
1 7.8496 23.6504 10.6605
1 8.6433 22.8567 10.6605
1 8.66254 23.638 9.87372
1 7.85439 22.8626 9.85601
1 9.43701 23.6504 10.6605
1 10.2307 22.8567 10.6605
1 10.2303 23.6325 9.86793
1 9.42728 22.8424 9.84031
1 11.0244 23.6504 10.6605
1 11.8181 22.8567 10.6605
1 11.8245 23.6732 9.88886
1 11.0209 22.8697 9.88308
1 12.6118 23.6504 10.6605
1 13.4055 22.8567 10.6605
1 13.422 23.6403 9.8427
1 12.6356 22.8678 9.85649
1 14.1992 23.6504 10.6605
1 14.9929 22.8567 10.6605
1 14.9986 23.6712 9.89211
1 14.1931 22.8658 9.86614
1 15.7866 23.6504 10.6605
1 16.5803 22.8567 10.6605
1 16.5721 23.6538 9.85389
1 15.79 22.8479 9.88285
1 17.374 23.6504 10.6605
1 18.1677 22.8567 10.6605
1 18.159 23.6369 9.85919
1 17.3473 22.849 9.86784
1 18.9614 23.6504 10.6605
1 19.7551 22.8567 10.6605
1 19.7644 23.65 9.85632
1 18.9602 22.8493 9.87745
1 20.5488 23.6504 10.6605
1 21.3425 22.8567 10.6605
1 21.3485 23.6357 9.87262
1 20.5291 22.8531 9.87544
1 22.1362 23.6504 10.6605
1 22.9299 22.8567 10.6605
1 22.9612 23.6597 9.8552
1 22.1195 22.8516 9.85248
1 23.7236 23.6504 10.6605
1 24.5173 22.8567 10.6605
1 24.535 23.639 9.86286
1 23.7461 22.8465 9.87576
1 25.311 23.6504 10.6605
1 26.1047 22.8567 10.6605
1 26.1049 23.6408 9.86042
1 25.3051 22.8325 9.86503
1 26.8984 23.6504 10.6605
1 27.6921 22.8567 10.6605
1 27.6876 23.664 9.84881
1 26.8935 22.8517 9.90042
1 28.4858 23.6504 10.6605
1 29.2795 22.8567 10.6605
1 29.271 23.6328 9.88319
1 28.4647 22.8628 9.89587
1 0.0732189 23.6504 10.6605
1 0.866919 22.8567 10.6605
1 0.808083 23.6531 9.83484
1 0.0482121 22.8665 9.87175
1 1.5 22.063 10.6605
1 2.2937 21.2693 10.6605
1 2.32164 22.0769 9.87052
1 1.5792 21.2851 9.816
1 3.0874 22.063 10.6605
1 3.8811 21.2693 10.6605
1 3.91185 22.0767 9.88356
1 3.11158 21.2509 9.85677
1 4.6748 22.063 10.6605
1 5.4685 21.2693 10.6605
1 5.46252 22.0668 9.86846
1 4.68957 21.2576 9.87744
1 6.2622 22.063 10.6605
1 7.0559 21.2693 10.6605
1 7.07307 22.0533 9.89431
1 6.24356 21.257 9.87552
1 7.8496 22.063 10.6605
1 8.6433 21.2693 10.6605
1 8.6565 22.0562 9.86219
1 7.87958 21.257 9.84733
1 9.43701 22.063 10.6605
1 10.2307 21.2693 10.6605
1 10.2284 22.0589 9.87238
1 9.4587 21.2512 9.87127
1 11.0244 22.063 10.6605
1 11.8181 21.2693 10.6605
1 11.8221 22.0835 9.88656
1 11.0223 21.248 9.87309
1 12.6118 22.063 10.6605
1 13.4055 21.2693 10.6605
1 13.4097 22.0712 9.85172
1 12.6276 21.2703 9.8883
1 14.1992 22.063 10.6605
1 14.9929 21.2693 10.6605
1 15.0014 22.0474 9.85282
1 14.1715 21.2801 9.86777
1 15.7866 22.063 10.6605
1 16.5803 21.2693 10.6605
1 16.561 22.0619 9.8682
1 15.7986 21.2743 9.85835
1 17.374 22.063 10.6605
1 18.1677 21.2693 10.6605
1 18.1643 22.0587 9.89819
1 17.3957 21.264 9.87712
1 18.9614 22.063 10.6605
1 19.7551 21.2693 10.6605
1 19.7749 22.0588 9.86582
1 18.9256 21.2531 9.88318
1 20.5488 22.063 10.6605
1 21.3425 21.2693 10.6605
1 21.3356 22.0559 9.85181
1 20.5304 21.2425 9.86519
1 22.1362 22.063 10.6605
1 22.9299 21.2693 10.6605
1 22.9387 22.0718 9.87691
1 22.1579 21.2752 9.87205
1 23.7236 22.063 10.6605
1 24.5173 21.2693 10.6605
1 24.5153 22.0453 9.8799
1 23.728 21.2958 9.86355
1 25.311 22.063 10.6605
1 26.1047 21.2693 10.6605
1 26.1181 22.0489 9.86728
1 25.2948 21.2656 9.86618
1 26.8984 22.063 10.6605
1 27.6921 21.2693 10.6605
1 27.6916 22.0561 9.85883
1 26.8861 21.2522 9.87501
1 28.4858 22.063 10.6605
1 29.2795 21.2693 10.6605
1 29.2791 22.0549 9.85131
1 28.474 21.2612 9.88675
1 0.0732189 22.063 10.6605
1 0.866919 21.2693 10.6605
1 0.775805 22.047 9.84262
1 0.0491821 21.281 9.84754
1 1.5 20.4756 10.6605
1 2.2937 19.6819 10.6605
1 2.33344 20.4571 9.84865
1 1.55325 19.6632 9.8351
1 3.0874 20.4756 10.6605
1 3.8811 19.6819 10.6605
1 3.90576 20.4494 9.88672
1 3.14365 19.6699 9.87215
1 4.6748 20.4756 10.6605
1 5.4685 19.6819 10.6605
1 5.47102 20.4578 9.8719
1 4.68715 19.6836 9.86445
1 6.2622 20.4756 10.6605
1 7.0559 19.6819 10.6605
1 7.06206 20.4646 9.87713
1 6.2917 19.6931 9.86858
1 7.8496 20.4756 10.6605
1 8.6433 19.6819 10.6605
1 8.66055 20.4658 9.86661
1 7.84476 19.6893 9.87213
1 9.43701 20.4756 10.6605
1 10.2307 19.6819 10.6605
1 10.234 20.4672 9.86537
1 9.42631 19.6667 9.84744
1 11.0244 20.4756 10.6605
1 11.8181 19.6819 10.6605
1 11.8265 20.4714 9.87974
1 11.0391 19.6964 9.87316
1 12.6118 20.4756 10.6605
1 13.4055 19.6819 10.6605
1 13.4063 20.4738 9.86459
1 12.6147 19.6795 9.87705
1 14.1992 20.4756 10.6605
1 14.9929 19.6819 10.6605
1 15.0021 20.4971 9.86221
1 14.1948 19.6984 9.86464
1 15.7866 20.4756 10.6605
1 16.5803 19.6819 10.6605
1 16.5866 20.478 9.8468
1 15.7867 19.6639 9.87013
1 17.374 20.4756 10.6605
1 18.1677 19.6819 10.6605
1 18.1736 20.4538 9.85586
1 17.3928 19.6867 9.84784
1 18.9614 20.4756 10.6605
1 19.7551 19.6819 10.6605
1 19.7484 20.4852 9.8672
1 18.9662 19.6752 9.8544
1 20.5488 20.4756 10.6605
1 21.3425 19.6819 10.6605
1 21.3568 20.468 9.88442
1 20.535 19.7132 9.86449
1 22.1362 20.4756 10.6605
1 22.9299 19.6819 10.6605
1 22.9152 20.4545 9.84547
1 22.1289 19.6965 9.85911
1 23.7236 20.4756 10.6605
1 24.5173 19.6819 10.6605
1 24.5247 20.4954 9.86967
1 23.7331 19.6951 9.86822
1 25.311 20.4756 10.6605
1 26.1047 19.6819 10.6605
1 26.0817 20.4703 9.88764
1 25.3131 19.6684 9.87232
1 26.8984 20.4756 10.6605
1 27.6921 19.6819 10.6605
1 27.6795 20.4776 9.86078
1 26.8769 19.6862 9.87711
1 28.4858 20.4756 10.6605
1 29.2795 19.6819 10.6605
1 29.2517 20.4836 9.87993
1 28.4767 19.666 9.877
1 0.0732189 20.4756 10.6605
1 0.866919 19.6819 10.6605
1 0.804724 20.4867 9.83457
1 0.0500977 19.7109 9.86897
1 1.5 18.8882 10.6605
1 2.2937 18.0945 10.6605
1 2.33507 18.889 9.85763
1 1.58322 18.1194 9.82699
1 3.0874 18.8882 10.6605
1 3.8811 18.0945 10.6605
1 3.90994 18.8897 9.88739
1 3.11211 18.1104 9.87182
1 4.6748 18.8882 10.6605
1 5.4685 18.0945 10.6605
1 5.48609 18.8893 9.87444
1 4.69432 18.1031 9.84672
1 6.2622 18.8882 10.6605
1 7.0559 18.0945 10.6605
1 7.08185 18.9039 9.85945
1 6.27615 18.1172 9.87527
1 7.8496 18.8882 10.6605
1 8.6433 18.0945 10.6605
1 8.63037 18.8877 9.86875
1 7.85471 18.0893 9.8708
1 9.43701 18.8882 10.6605
1 10.2307 18.0945 10.6605
1 10.2256 18.891 9.87343
1 9.4526 18.1179 9.85314
1 11.0244 18.8882 10.6605
1 11.8181 18.0945 10.6605
1 11.8389 18.8673 9.88669
1 11.0379 18.1029 9.85414
1 12.6118 18.8882 10.6605
1 13.4055 18.0945 10.6605
1 13.4194 18.8981 9.83852
1 12.6204 18.094 9.88119
1 14.1992 18.8882 10.6605
1 14.9929 18.0945 10.6605
1 15.0074 18.8972 9.85346
1 14.1903 18.0864 9.86288
1 15.7866 18.8882 10.6605
1 16.5803 18.0945 10.6605
1 16.5867 18.8765 9.87161
1 15.7967 18.0975 9.83344
1 17.374 18.8882 10.6605
1 18.1677 18.0945 10.6605
1 18.1743 18.8878 9.84196
1 17.3798 18.1153 9.85277
1 18.9614 18.8882 10.6605
1 19.7551 18.0945 10.6605
1 19.749 18.8872 9.8879
1 18.9555 18.0837 9.88162
1 20.5488 18.8882 10.6605
1 21.3425 18.0945 10.6605
1 21.3299 18.8985 9.8476
1 20.5498 18.0858 9.85631
1 22.1362 18.8882 10.6605
1 22.9299 18.0945 10.6605
1 22.9329 18.8767 9.87032
1 22.1091 18.087 9.8787
1 23.7236 18.8882 10.6605
1 24.5173 18.0945 10.6605
1 24.5401 18.8915 9.83529
1 23.7262 18.0968 9.86869
1 25.311 18.8882 10.6605
1 26.1047 18.0945 10.6605
1 26.1214 18.9038 9.87104
1 25.3119 18.0875 9.86043
1 26.8984 18.8882 10.6605
1 27.6921 18.0945 10.6605
1 27.692 18.8803 9.86005
1 26.9085 18.1011 9.86311
1 28.4858 18.8882 10.6605
1 29.2795 18.0945 10.6605
1 29.2817 18.8814 9.86059
1 28.4689 18.097 9.88315
1 0.0732189 18.8882 10.6605
1 0.866919 18.0945 10.6605
1 0.795895 18.892 9.81589
1 0.0243855 18.1044 9.85875
1 1.5 17.3008 10.6605
1 2.2937 16.5071 10.6605
1 2.30929 17.3107 9.86465
1 1.5503 16.4921 9.82443
1 3.0874 17.3008 10.6605
1 3.8811 16.5071 10.6605
1 3.88828 17.3066 9.87761
1 3.11225 16.516 9.8571
1 4.6748 17.3008 10.6605
1 5.4685 16.5071 10.6605
1 5.5085 17.3356 9.87815
1 4.67903 16.5179 9.86858
1 6.2622 17.3008 10.6605
1 7.0559 16.5071 10.6605
1 7.03923 17.323 9.85431
1 6.26901 16.5108 9.87017
1 7.8496 17.3008 10.6605
1 8.6433 16.5071 10.6605
1 8.64163 17.3118 9.87465
1 7.86405 16.5277 9.89313
1 9.43701 17.3008 10.6605
1 10.2307 16.5071 10.6605
1 10.2255 17.3226 9.85779
1 9.43482 16.5424 9.8631
1 11.0244 17.3008 10.6605
1 11.8181 16.5071 10.6605
1 11.8269 17.2959 9.84822
1 11.0069 16.5198 9.84681
1 12.6118 17.3008 10.6605
1 13.4055 16.5071 10.6605
1 13.4033 17.3047 9.8753
1 12.6295 16.5088 9.88175
1 14.1992 17.3008 10.6605
1 14.9929 16.5071 10.6605
1 15.0097 17.3369 9.87686
1 14.2117 16.5056 9.87202
1 15.7866 17.3008 10.6605
1 16.5803 16.5071 10.6605
1 16.574 17.2825 9.8718
1 15.7948 16.5078 9.85705
1 17.374 17.3008 10.6605
1 18.1677 16.5071 10.6605
1 18.1657 17.2811 9.86913
1 17.3635 16.4834 9.86119
1 18.9614 17.3008 10.6605
1 19.7551 16.5071 10.6605
1 19.7275 17.301 9.85312
1 18.9697 16.5036 9.86117
1 20.5488 17.3008 10.6605
1 21.3425 16.5071 10.6605
1 21.3448 17.2898 9.86884
1 20.5526 16.532 9.9015
1 22.1362 17.3008 10.6605
1 22.9299 16.5071 10.6605
1 22.9073 17.284 9.86957
1 22.1355 16.4972 9.86293
1 23.7236 17.3008 10.6605
1 24.5173 16.5071 10.6605
1 24.5263 17.3123 9.88931
1 23.7305 16.5257 9.84995
1 25.311 17.3008 10.6605
1 26.1047 16.5071 10.6605
1 26.1087 17.2833 9.86889
1 25.3235 16.4885 9.87581
1 26.8984 17.3008 10.6605
1 27.6921 16.5071 10.6605
1 27.7056 17.3061 9.86762
1 26.9264 16.5115 9.86664
1 28.4858 17.3008 10.6605
1 29.2795 16.5071 10.6605
1 29.2645 17.2869 9.86631
1 28.4674 16.4971 9.87169
1 0.0732189 17.3008 10.6605
1 0.866919 16.5071 10.6605
1 0.824216 17.3335 9.83444
1 0.0582728 16.5216 9.86511
1 1.5 15.7134 10.6605
1 2.2937 14.9197 10.6605
1 2.3503 15.7109 9.88119
1 1.56949 14.9362 9.81388
1 3.0874 15.7134 10.6605
1 3.8811 14.9197 10.6605
1 3.89905 15.7164 9.85574
1 3.09284 14.9182 9.86937
1 4.6748 15.7134 10.6605
1 5.4685 14.9197 10.6605
1 5.47096 15.7051 9.85754
1 4.66434 14.9015 9.85625
1 6.2622 15.7134 10.6605
1 7.0559 14.9197 10.6605
1 7.04425 15.738 9.86524
1 6.26608 14.9027 9.8723
1 7.8496 15.7134 10.6605
1 8.6433 14.9197 10.6605
1 8.62521 15.7152 9.83637
1 7.84093 14.9111 9.8656
1 9.43701 15.7134 10.6605
1 10.2307 14.9197 10.6605
1 10.2108 15.725 9.86771
1 9.45616 14.9066 9.86883
1 11.0244 15.7134 10.6605
1 11.8181 14.9197 10.6605
1 11.8068 15.7163 9.87539
1 11.0162 14.933 9.86852
1 12.6118 15.7134 10.6605
1 13.4055 14.9197 10.6605
1 13.3988 15.6979 9.86264
1 12.6165 14.8945 9.88809
1 14.1992 15.7134 10.6605
1 14.9929 14.9197 10.6605
1 14.9857 15.6913 9.8685
1 14.1806 14.9141 9.85656
1 15.7866 15.7134 10.6605
1 16.5803 14.9197 10.6605
1 16.5817 15.7331 9.86634
1 15.7934 14.9489 9.87788
1 17.374 15.7134 10.6605
1 18.1677 14.9197 10.6605
1 18.2038 15.697 9.85931
1 17.3845 14.9241 9.88473
1 18.9614 15.7134 10.6605
1 19.7551 14.9197 10.6605
1 19.7488 15.7253 9.88206
1 18.9747 14.9158 9.91549
1 20.5488 15.7134 10.6605
1 21.3425 14.9197 10.6605
1 21.3584 15.7107 9.87143
1 20.5371 14.9232 9.86513
1 22.1362 15.7134 10.6605
1 22.9299 14.9197 10.6605
1 22.9303 15.7072 9.86299
1 22.1415 14.8986 9.87705
1 23.7236 15.7134 10.6605
1 24.5173 14.9197 10.6605
1 24.5031 15.7163 9.88455
1 23.6969 14.914 9.87232
1 25.311 15.7134 10.6605
1 26.1047 14.9197 10.6605
1 26.1009 15.7076 9.87373
1 25.3315 14.9001 9.87728
1 26.8984 15.7134 10.6605
1 27.6921 14.9197 10.6605
1 27.7028 15.6846 9.85925
1 26.9109 14.9054 9.88391
1 28.4858 15.7134 10.6605
1 29.2795 14.9197 10.6605
1 29.2711 15.7161 9.85368
1 28.471 14.9166 9.8655
1 0.0732189 15.7134 10.6605
1 0.866919 14.9197 10.6605
1 0.791126 15.7515 9.82999
1 0.0471523 14.9334 9.85727
1 1.5 14.126 10.6605
1 2.2937 13.3323 10.6605
1 2.33002 14.1285 9.85978
1 1.5664 13.3461 9.8335
1 3.0874 14.126 10.6605
1 3.8811 13.3323 10.6605
1 3.8869 14.1205 9.86563
1 3.09628 13.3655 9.85692
1 4.6748 14.126 10.6605
1 5.4685 13.3323 10.6605
1 5.47543 14.1123 9.85842
1 4.68622 13.3378 9.85986
1 6.2622 14.126 10.6605
1 7.0559 13.3323 10.6605
1 7.05491 14.1091 9.83669
1 6.24611 13.3387 9.85349
1 7.8496 14.126 10.6605
1 8.6433 13.3323 10.6605
1 8.64447 14.123 9.87605
1 7.8446 13.3308 9.88534
1 9.43701 14.126 10.6605
1 10.2307 13.3323 10.6605
1 10.2565 14.1181 9.84751
1 9.44995 13.3351 9.85514
1 11.0244 14.126 10.6605
1 11.8181 13.3323 10.6605
1 11.7987 14.1272 9.84593
1 11.0207 13.3116 9.87583
1 12.6118 14.126 10.6605
1 13.4055 13.3323 10.6605
1 13.4019 14.133 9.8813
1 12.6044 13.3441 9.88217
1 14.1992 14.126 10.6605
1 14.9929 13.3323 10.6605
1 15.0107 14.1262 9.84661
1 14.2164 13.3506 9.85661
1 15.7866 14.126 10.6605
1 16.5803 13.3323 10.6605
1 16.5485 14.1333 9.86819
1 15.797 13.331 9.87836
1 17.374 14.126 10.6605
1 18.1677 13.3323 10.6605
1 18.1509 14.1327 9.8778
1 17.3449 13.3441 9.87757
1 18.9614 14.126 10.6605
1 19.7551 13.3323 10.6605
1 19.747 14.1034 9.88488
1 18.9637 13.3191 9.86621
1 20.5488 14.126 10.6605
1 21.3425 13.3323 10.6605
1 21.3522 14.1415 9.87577
1 20.5546 13.3275 9.87729
1 22.1362 14.126 10.6605
1 22.9299 13.3323 10.6605
1 22.946 14.1425 9.88203
1 22.1374 13.345 9.86158
1 23.7236 14.126 10.6605
1 24.5173 13.3323 10.6605
1 24.5424 14.1261 9.87815
1 23.7198 13.358 9.84184
1 25.311 14.126 10.6605
1 26.1047 13.3323 10.6605
1 26.1192 14.1219 9.8552
1 25.2885 13.3163 9.86892
1 26.8984 14.126 10.6605
1 27.6921 13.3323 10.6605
1 27.6861 14.1063 9.87279
1 26.9099 13.3099 9.86831
1 28.4858 14.126 10.6605
1 29.2795 13.3323 10.6605
1 29.264 14.1279 9.87131
1 28.4674 13.3332 9.85661
1 0.0732189 14.126 10.6605
1 0.866919 13.3323 10.6605
1 0.804547 14.1298 9.81431
1 0.0566126 13.3378 9.86982
1 1.5 12.5386 10.6605
1 2.2937 11.7449 10.6605
1 2.3428 12.5333 9.84555
1 1.54503 11.7456 9.83299
1 3.0874 12.5386 10.6605
1 3.8811 11.7449 10.6605
1 3.89352 12.5413 9.86763
1 3.11633 11.7298 9.86466
1 4.6748 12.5386 10.6605
1 5.4685 11.7449 10.6605
1 5.46203 12.5209 9.86189
1 4.68141 11.7361 9.86739
1 6.2622 12.5386 10.6605
1 7.0559 11.7449 10.6605
1 7.06014 12.5302 9.86304
1 6.25522 11.7497 9.85644
1 7.8496 12.5386 10.6605
1 8.6433 11.7449 10.6605
1 8.6507 12.5441 9.86186
1 7.87475 11.7339 9.86766
1 9.43701 12.5386 10.6605
1 10.2307 11.7449 10.6605
1 10.2116 12.5301 9.86036
1 9.44234 11.7477 9.87796
1 11.0244 12.5386 10.6605
1 11.8181 11.7449 10.6605
1 11.827 12.5244 9.88613
1 11.0182 11.7455 9.87583
1 12.6118 12.5386 10.6605
1 13.4055 11.7449 10.6605
1 13.3954 12.5468 9.86707
1 12.6267 11.727 9.8784
1 14.1992 12.5386 10.6605
1 14.9929 11.7449 10.6605
1 14.9814 12.5439 9.88094
1 14.1888 11.7356 9.87329
1 15.7866 12.5386 10.6605
1 16.5803 11.7449 10.6605
1 16.5884 12.5343 9.87016
1 15.7794 11.722 9.89092
1 17.374 12.5386 10.6605
1 18.1677 11.7449 10.6605
1 18.158 12.5237 9.86948
1 17.3829 11.7534 9.88947
1 18.9614 12.5386 10.6605
1 19.7551 11.7449 10.6605
1 19.7511 12.5342 9.85093
1 18.9706 11.7398 9.86327
1 20.5488 12.5386 10.6605
1 21.3425 11.7449 10.6605
1 21.3447 12.5105 9.87256
1 20.5553 11.7296 9.86634
1 22.1362 12.5386 10.6605
1 22.9299 11.7449 10.6605
1 22.9074 12.5466 9.86913
1 22.1412 11.7516 9.85558
1 23.7236 12.5386 10.6605
1 24.5173 11.7449 10.6605
1 24.4766 12.5507 9.88938
1 23.712 11.7711 9.84769
1 25.311 12.5386 10.6605
1 26.1047 11.7449 10.6605
1 26.0858 12.5439 9.84782
1 25.295 11.7426 9.86042
1 26.8984 12.5386 10.6605
1 27.6921 11.7449 10.6605
1 27.6656 12.5283 9.84081
1 26.9041 11.763 9.87256
1 28.4858 12.5386 10.6605
1 29.2795 11.7449 10.6605
1 29.259 12.5401 9.86405
1 28.461 11.7842 9.87636
1 0.0732189 12.5386 10.6605
1 0.866919 11.7449 10.6605
1 0.795987 12.5248 9.82609
1 0.0424698 11.756 9.85491
1 1.5 10.9512 10.6605
1 2.2937 10.1575 10.6605
1 2.31692 10.9374 9.88471
1 1.56461 10.1413 9.82968
1 3.0874 10.9512 10.6605
1 3.8811 10.1575 10.6605
1 3.90265 10.9184 9.86446
1 3.09342 10.1509 9.86982
1 4.6748 10.9512 10.6605
1 5.4685 10.1575 10.6605
1 5.48455 10.9422 9.86657
1 4.70094 10.156 9.88035
1 6.2622 10.9512 10.6605
1 7.0559 10.1575 10.6605
1 7.06311 10.9289 9.89085
1 6.24109 10.1498 9.87478
1 7.8496 10.9512 10.6605
1 8.6433 10.1575 10.6605
1 8.62637 10.9411 9.86391
1 7.86531 10.1394 9.85197
1 9.43701 10.9512 10.6605
1 10.2307 10.1575 10.6605
1 10.2367 10.9598 9.88097
1 9.44562 10.1722 9.85089
1 11.0244 10.9512 10.6605
1 11.8181 10.1575 10.6605
1 11.8179 10.9394 9.86074
1 11.0226 10.13 9.85563
1 12.6118 10.9512 10.6605
1 13.4055 10.1575 10.6605
1 13.4049 10.9445 9.87884
1 12.5942 10.162 9.87084
1 14.1992 10.9512 10.6605
1 14.9929 10.1575 10.6605
1 14.9577 10.9449 9.86576
1 14.1779 10.1406 9.86945
1 15.7866 10.9512 10.6605
1 16.5803 10.1575 10.6605
1 16.5913 10.9578 9.88129
1 15.7895 10.1401 9.85843
1 17.374 10.9512 10.6605
1 18.1677 10.1575 10.6605
1 18.1581 10.9489 9.89017
1 17.3899 10.1607 9.87478
1 18.9614 10.9512 10.6605
1 19.7551 10.1575 10.6605
1 19.7536 10.9518 9.86028
1 18.9627 10.1663 9.86471
1 20.5488 10.9512 10.6605
1 21.3425 10.1575 10.6605
1 21.3616 10.9632 9.87128
1 20.5515 10.1732 9.8553
1 22.1362 10.9512 10.6605
1 22.9299 10.1575 10.6605
1 22.9394 10.9556 9.86162
1 22.1385 10.1801 9.86649
1 23.7236 10.9512 10.6605
1 24.5173 10.1575 10.6605
1 24.5237 10.9561 9.8854
1 23.7384 10.1773 9.8793
1 25.311 10.9512 10.6605
1 26.1047 10.1575 10.6605
1 26.111 10.969 9.904
1 25.3114 10.1709 9.84264
1 26.8984 10.9512 10.6605
1 27.6921 10.1575 10.6605
1 27.6801 10.9538 9.86244
1 26.8906 10.1674 9.85765
1 28.4858 10.9512 10.6605
1 29.2795 10.1575 10.6605
1 29.2687 10.9534 9.88268
1 28.4721 10.1418 9.87806
1 0.0732189 10.9512 10.6605
1 0.866919 10.1575 10.6605
1 0.780398 10.919 9.83147
1 0.0221269 10.1627 9.86343
1 1.5 9.36379 10.6605
1 2.2937 8.57009 10.6605
1 2.31632 9.35431 9.82436
1 1.53794 8.57513 9.84714
1 3.0874 9.36379 10.6605
1 3.8811 8.57009 10.6605
1 3.87931 9.36761 9.87575
1 3.10392 8.59493 9.84712
1 4.6748 9.36379 10.6605
1 5.4685 8.57009 10.6605
1 5.46144 9.37367 9.88893
1 4.68663 8.56963 9.88741
1 6.2622 9.36379 10.6605
1 7.0559 8.57009 10.6605
1 7.05759 9.3563 9.87212
1 6.27107 8.57499 9.87286
1 7.8496 9.36379 10.6605
1 8.6433 8.57009 10.6605
1 8.63363 9.34971 9.8855
1 7.82588 8.55798 9.86643
1 9.43701 9.36379 10.6605
1 10.2307 8.57009 10.6605
1 10.2175 9.34801 9.8615
1 9.41531 8.5532 9.8522
1 11.0244 9.36379 10.6605
1 11.8181 8.57009 10.6605
1 11.8161 9.34952 9.85931
1 11.0104 8.57993 9.87097
1 12.6118 9.36379 10.6605
1 13.4055 8.57009 10.6605
1 13.4025 9.36008 9.88424
1 12.6014 8.58407 9.88914
1 14.1992 9.36379 10.6605
1 14.9929 8.57009 10.6605
1 15.0074 9.32599 9.85076
1 14.1841 8.57633 9.86844
1 15.7866 9.36379 10.6605
1 16.5803 8.57009 10.6605
1 16.5672 9.35315 9.86458
1 15.784 8.55731 9.89207
1 17.374 9.36379 10.6605
1 18.1677 8.57009 10.6605
1 18.2056 9.37418 9.87605
1 17.3828 8.57768 9.8532
1 18.9614 9.36379 10.6605
1 19.7551 8.57009 10.6605
1 19.7594 9.3732 9.86988
1 18.9603 8.54958 9.88728
1 20.5488 9.36379 10.6605
1 21.3425 8.57009 10.6605
1 21.3432 9.37488 9.87432
1 20.5521 8.59465 9.88521
1 22.1362 9.36379 10.6605
1 22.9299 8.57009 10.6605
1 22.9414 9.37555 9.88328
1 22.135 8.57322 9.89187
1 23.7236 9.36379 10.6605
1 24.5173 8.57009 10.6605
1 24.5093 9.37601 9.87014
1 23.7141 8.56639 9.86684
1 25.311 9.36379 10.6605
1 26.1047 8.57009 10.6605
1 26.0946 9.38199 9.86533
1 25.3085 8.5589 9.85623
1 26.8984 9.36379 10.6605
1 27.6921 8.57009 10.6605
1 27.6656 9.37905 9.87395
1 26.8881 8.59712 9.87224
1 28.4858 9.36379 10.6605
1 29.2795 8.57009 10.6605
1 29.2662 9.34116 9.88752
1 28.479 8.56014 9.89606
1 0.0732189 9.36379 10.6605
1 0.866919 8.57009 10.6605
1 0.774014 9.36085 9.81988
1 0.0457782 8.5633 9.84961
1 1.5 7.77639 10.6605
1 2.2937 6.98268 10.6605
1 2.33498 7.76745 9.86941
1 1.55556 7.01331 9.8432
1 3.0874 7.77639 10.6605
1 3.8811 6.98268 10.6605
1 3.90581 7.76735 9.85556
1 3.09487 6.99294 9.83885
1 4.6748 7.77639 10.6605
1 5.4685 6.98268 10.6605
1 5.4894 7.76185 9.88683
1 4.69588 6.97882 9.85754
1 6.2622 7.77639 10.6605
1 7.0559 6.98268 10.6605
1 7.07301 7.77286 9.87651
1 6.25926 6.97865 9.87522
1 7.8496 7.77639 10.6605
1 8.6433 6.98268 10.6605
1 8.64325 7.78197 9.86177
1 7.83516 6.99012 9.88071
1 9.43701 7.77639 10.6605
1 10.2307 6.98268 10.6605
1 10.2331 7.79329 9.87979
1 9.43352 6.98858 9.87467
1 11.0244 7.77639 10.6605
1 11.8181 6.98268 10.6605
1 11.8073 7.77665 9.88546
1 11.0233 6.98809 9.85548
1 12.6118 7.77639 10.6605
1 13.4055 6.98268 10.6605
1 13.3955 7.78274 9.87884
1 12.5873 6.94762 9.85648
1 14.1992 7.77639 10.6605
1 14.9929 6.98268 10.6605
1 14.9755 7.76755 9.84192
1 14.1972 6.98053 9.87259
1 15.7866 7.77639 10.6605
1 16.5803 6.98268 10.6605
1 16.5784 7.77641 9.84878
1 15.8045 7.00088 9.87719
1 17.374 7.77639 10.6605
1 18.1677 6.98268 10.6605
1 18.1928 7.78359 9.87208
1 17.3734 6.98734 9.87588
1 18.9614 7.77639 10.6605
1 19.7551 6.98268 10.6605
1 19.7527 7.79123 9.88215
1 18.9739 6.99172 9.89144
1 20.5488 7.77639 10.6605
1 21.3425 6.98268 10.6605
1 21.3486 7.76176 9.89399
1 20.5548 7.00872 9.87953
1 22.1362 7.77639 10.6605
1 22.9299 6.98268 10.6605
1 22.9289 7.78697 9.86374
1 22.1446 6.96466 9.8601
1 23.7236 7.77639 10.6605
1 24.5173 6.98268 10.6605
1 24.5276 7.7766 9.86534
1 23.7434 6.98642 9.86458
1 25.311 7.77639 10.6605
1 26.1047 6.98268 10.6605
1 26.1054 7.80122 9.87071
1 25.3297 6.96703 9.85384
1 26.8984 7.77639 10.6605
1 27.6921 6.98268 10.6605
1 27.6731 7.78182 9.85997
1 26.8829 6.99665 9.85412
1 28.4858 7.77639 10.6605
1 29.2795 6.98268 10.6605
1 29.2591 7.77873 9.87314
1 28.4817 6.9872 9.8598
1 0.0732189 7.77639 10.6605
1 0.866919 6.98268 10.6605
1 0.78723 7.76315 9.7988
1 0.0516544 7.00249 9.8675
1 1.5 6.18898 10.6605
1 2.2937 5.39528 10.6605
1 2.33951 6.16583 9.86258
1 1.54606 5.40227 9.8467
1 3.0874 6.18898 10.6605
1 3.8811 5.39528 10.6605
1 3.90445 6.21406 9.88891
1 3.09855 5.39932 9.88024
1 4.6748 6.18898 10.6605
1 5.4685 5.39528 10.6605
1 5.47577 6.19486 9.83182
1 4.67952 5.39929 9.88635
1 6.2622 6.18898 10.6605
1 7.0559 5.39528 10.6605
1 7.03114 6.18484 9.87956
1 6.27002 5.42685 9.87406
1 7.8496 6.18898 10.6605
1 8.6433 5.39528 10.6605
1 8.64419 6.18724 9.88946
1 7.82808 5.40689 9.92483
1 9.43701 6.18898 10.6605
1 10.2307 5.39528 10.6605
1 10.211 6.17162 9.86118
1 9.44604 5.39412 9.85968