9376
Atoms. Timestep: 4000000
1 0.075 3.55271e-15 10.6852
1 0.868701 29.2063 10.6852
1 0.898848 29.9349 9.84617
1 0.147095 29.193 9.84643
1 1.6624 3.55271e-15 10.6852
1 2.4561 29.2063 10.6852
1 2.46205 29.9156 9.84255
1 1.66622 29.1699 9.91242
1 3.2498 3.55271e-15 10.6852
1 4.0435 29.2063 10.6852
1 4.06308 29.9109 9.82965
1 3.21939 29.1947 9.88002
1 4.8372 3.55271e-15 10.6852
1 5.6309 29.2063 10.6852
1 5.63212 29.9267 9.86988
1 4.85335 29.1914 9.87679
1 6.4246 3.55271e-15 10.6852
1 7.2183 29.2063 10.6852
1 7.22631 29.9266 9.84748
1 6.42499 29.1643 9.86446
1 8.01201 3.55271e-15 10.6852
1 8.80571 29.2063 10.6852
1 8.80136 29.941 9.85873
1 8.00161 29.1587 9.89582
1 9.59941 3.55271e-15 10.6852
1 10.3931 29.2063 10.6852
1 10.3687 29.9271 9.83875
1 9.56898 29.1814 9.90549
1 11.1868 3.55271e-15 10.6852
1 11.9805 29.2063 10.6852
1 11.9672 29.9454 9.86961
1 11.1549 29.1802 9.89445
1 12.7742 3.55271e-15 10.6852
1 13.5679 29.2063 10.6852
1 13.5788 29.9498 9.85267
1 12.7738 29.1964 9.89704
1 14.3616 3.55271e-15 10.6852
1 15.1553 29.2063 10.6852
1 15.172 29.9397 9.88416
1 14.3761 29.1748 9.88737
1 15.949 3.55271e-15 10.6852
1 16.7427 29.2063 10.6852
1 16.7297 29.9091 9.85785
1 15.9436 29.1458 9.83965
1 17.5364 3.55271e-15 10.6852
1 18.3301 29.2063 10.6852
1 18.3341 29.9263 9.85811
1 17.5404 29.1632 9.87663
1 19.1238 3.55271e-15 10.6852
1 19.9175 29.2063 10.6852
1 19.9087 29.9405 9.86151
1 19.0962 29.1857 9.86756
1 20.7112 3.55271e-15 10.6852
1 21.5049 29.2063 10.6852
1 21.5211 29.9469 9.862
1 20.7262 29.1901 9.89533
1 22.2986 3.55271e-15 10.6852
1 23.0923 29.2063 10.6852
1 23.0855 29.9185 9.8588
1 22.303 29.184 9.88039
1 23.886 3.55271e-15 10.6852
1 24.6797 29.2063 10.6852
1 24.6859 29.9274 9.84917
1 23.8837 29.1735 9.88772
1 25.4734 3.55271e-15 10.6852
1 26.2671 29.2063 10.6852
1 26.2757 29.9365 9.85419
1 25.4479 29.1606 9.88747
1 27.0608 3.55271e-15 10.6852
1 27.8545 29.2063 10.6852
1 27.8426 29.9046 9.86213
1 27.0649 29.179 9.89769
1 28.6482 3.55271e-15 10.6852
1 29.4419 29.2063 10.6852
1 29.3928 29.9499 9.81241
1 28.6216 29.1948 9.868
1 0.075 28.4126 10.6852
1 0.868701 27.6189 10.6852
1 0.878129 28.3897 9.91053
1 0.154304 27.5954 9.86317
1 1.6624 28.4126 10.6852
1 2.4561 27.6189 10.6852
1 2.46607 28.3975 9.89702
1 1.6719 27.6301 9.90115
1 3.2498 28.4126 10.6852
1 4.0435 27.6189 10.6852
1 4.03628 28.3859 9.88171
1 3.27586 27.6172 9.88579
1 4.8372 28.4126 10.6852
1 5.6309 27.6189 10.6852
1 5.61916 28.3927 9.91875
1 4.8413 27.5913 9.91382
1 6.4246 28.4126 10.6852
1 7.2183 27.6189 10.6852
1 7.2105 28.391 9.88543
1 6.42089 27.617 9.90159
1 8.01201 28.4126 10.6852
1 8.80571 27.6189 10.6852
1 8.79768 28.4013 9.88311
1 8.02186 27.6211 9.89758
1 9.59941 28.4126 10.6852
1 10.3931 27.6189 10.6852
1 10.3747 28.3866 9.89969
1 9.6022 27.6236 9.88186
1 11.1868 28.4126 10.6852
1 11.9805 27.6189 10.6852
1 11.9811 28.4075 9.88201
1 11.1937 27.5849 9.92747
1 12.7742 28.4126 10.6852
1 13.5679 27.6189 10.6852
1 13.5581 28.3992 9.88709
1 12.7587 27.5929 9.88238
1 14.3616 28.4126 10.6852
1 15.1553 27.6189 10.6852
1 15.1574 28.3962 9.88188
1 14.3691 27.6062 9.89961
1 15.949 28.4126 10.6852
1 16.7427 27.6189 10.6852
1 16.722 28.4105 9.89571
1 15.9548 27.6295 9.88022
1 17.5364 28.4126 10.6852
1 18.3301 27.6189 10.6852
1 18.3352 28.3816 9.89012
1 17.531 27.6056 9.88685
1 19.1238 28.4126 10.6852
1 19.9175 27.6189 10.6852
1 19.9126 28.3992 9.87852
1 19.1223 27.5734 9.90667
1 20.7112 28.4126 10.6852
1 21.5049 27.6189 10.6852
1 21.5004 28.3823 9.898
1 20.7089 27.5799 9.91582
1 22.2986 28.4126 10.6852
1 23.0923 27.6189 10.6852
1 23.0961 28.3666 9.8795
1 22.2869 27.6112 9.89154
1 23.886 28.4126 10.6852
1 24.6797 27.6189 10.6852
1 24.6659 28.4023 9.88992
1 23.8983 27.613 9.89365
1 25.4734 28.4126 10.6852
1 26.2671 27.6189 10.6852
1 26.2375 28.3949 9.93647
1 25.4559 27.64 9.90306
1 27.0608 28.4126 10.6852
1 27.8545 27.6189 10.6852
1 27.85 28.4207 9.87344
1 27.0301 27.6192 9.87995
1 28.6482 28.4126 10.6852
1 29.4419 27.6189 10.6852
1 29.3794 28.3815 9.84046
1 28.5697 27.5881 9.87229
1 0.075 26.8252 10.6852
1 0.868701 26.0315 10.6852
1 0.882505 26.8524 9.87354
1 0.127259 26.0186 9.87093
1 1.6624 26.8252 10.6852
1 2.4561 26.0315 10.6852
1 2.43924 26.8439 9.9094
1 1.66053 26.0616 9.89295
1 3.2498 26.8252 10.6852
1 4.0435 26.0315 10.6852
1 4.04418 26.8165 9.9148
1 3.26139 26.0303 9.9018
1 4.8372 26.8252 10.6852
1 5.6309 26.0315 10.6852
1 5.65927 26.8187 9.88798
1 4.83261 26.0052 9.87519
1 6.4246 26.8252 10.6852
1 7.2183 26.0315 10.6852
1 7.21542 26.8474 9.88983
1 6.40437 26.0406 9.87267
1 8.01201 26.8252 10.6852
1 8.80571 26.0315 10.6852
1 8.82986 26.8294 9.87939
1 8.00813 26.043 9.87907
1 9.59941 26.8252 10.6852
1 10.3931 26.0315 10.6852
1 10.3832 26.8181 9.88153
1 9.60758 26.0146 9.90786
1 11.1868 26.8252 10.6852
1 11.9805 26.0315 10.6852
1 11.9791 26.8112 9.89642
1 11.1933 26.022 9.87666
1 12.7742 26.8252 10.6852
1 13.5679 26.0315 10.6852
1 13.5592 26.8228 9.89756
1 12.7812 26.005 9.90895
1 14.3616 26.8252 10.6852
1 15.1553 26.0315 10.6852
1 15.1697 26.8327 9.90023
1 14.3626 26.0327 9.88352
1 15.949 26.8252 10.6852
1 16.7427 26.0315 10.6852
1 16.7489 26.8342 9.90858
1 15.9617 26.0251 9.88333
1 17.5364 26.8252 10.6852
1 18.3301 26.0315 10.6852
1 18.3378 26.8022 9.90587
1 17.5448 25.9952 9.91014
1 19.1238 26.8252 10.6852
1 19.9175 26.0315 10.6852
1 19.9026 26.8084 9.89663
1 19.1053 26.0314 9.90999
1 20.7112 26.8252 10.6852
1 21.5049 26.0315 10.6852
1 21.5077 26.8132 9.89386
1 20.7239 26.024 9.88931
1 22.2986 26.8252 10.6852
1 23.0923 26.0315 10.6852
1 23.0959 26.813 9.91842
1 22.3038 26.0202 9.89378
1 23.886 26.8252 10.6852
1 24.6797 26.0315 10.6852
1 24.6504 26.8129 9.90983
1 23.8907 26.025 9.90804
1 25.4734 26.8252 10.6852
1 26.2671 26.0315 10.6852
1 26.2504 26.8072 9.8946
1 25.4712 26.0395 9.93686
1 27.0608 26.8252 10.6852
1 27.8545 26.0315 10.6852
1 27.8083 26.796 9.89898
1 27.0442 26.0367 9.87834
1 28.6482 26.8252 10.6852
1 29.4419 26.0315 10.6852
1 29.3578 26.8008 9.84067
1 28.584 26.0321 9.89765
1 0.075 25.2378 10.6852
1 0.868701 24.4441 10.6852
1 0.881806 25.2491 9.88296
1 0.129843 24.4207 9.86396
1 1.6624 25.2378 10.6852
1 2.4561 24.4441 10.6852
1 2.46642 25.2385 9.87751
1 1.69483 24.4343 9.87291
1 3.2498 25.2378 10.6852
1 4.0435 24.4441 10.6852
1 4.04013 25.2575 9.88826
1 3.27372 24.4438 9.89518
1 4.8372 25.2378 10.6852
1 5.6309 24.4441 10.6852
1 5.6259 25.2406 9.89748
1 4.83432 24.4582 9.90641
1 6.4246 25.2378 10.6852
1 7.2183 24.4441 10.6852
1 7.22672 25.2557 9.90156
1 6.43082 24.4426 9.92036
1 8.01201 25.2378 10.6852
1 8.80571 24.4441 10.6852
1 8.81857 25.2428 9.88459
1 8.03431 24.4369 9.90612
1 9.59941 25.2378 10.6852
1 10.3931 24.4441 10.6852
1 10.4222 25.2259 9.87996
1 9.6146 24.4534 9.89729
1 11.1868 25.2378 10.6852
1 11.9805 24.4441 10.6852
1 11.9812 25.2117 9.90278
1 11.1789 24.4278 9.88748
1 12.7742 25.2378 10.6852
1 13.5679 24.4441 10.6852
1 13.5765 25.2478 9.90086
1 12.8088 24.4033 9.89405
1 14.3616 25.2378 10.6852
1 15.1553 24.4441 10.6852
1 15.1603 25.2402 9.90465
1 14.3428 24.4531 9.89696
1 15.949 25.2378 10.6852
1 16.7427 24.4441 10.6852
1 16.7224 25.2435 9.90629
1 15.9469 24.4475 9.88881
1 17.5364 25.2378 10.6852
1 18.3301 24.4441 10.6852
1 18.3564 25.2414 9.88305
1 17.5408 24.4455 9.88361
1 19.1238 25.2378 10.6852
1 19.9175 24.4441 10.6852
1 19.8952 25.2261 9.87182
1 19.1059 24.4226 9.88737
1 20.7112 25.2378 10.6852
1 21.5049 24.4441 10.6852
1 21.4877 25.2349 9.88049
1 20.7145 24.4513 9.89179
1 22.2986 25.2378 10.6852
1 23.0923 24.4441 10.6852
1 23.1064 25.2147 9.87647
1 22.3002 24.4199 9.88987
1 23.886 25.2378 10.6852
1 24.6797 24.4441 10.6852
1 24.698 25.2497 9.86765
1 23.9068 24.4371 9.8786
1 25.4734 25.2378 10.6852
1 26.2671 24.4441 10.6852
1 26.2548 25.2559 9.88929
1 25.4759 24.4696 9.87327
1 27.0608 25.2378 10.6852
1 27.8545 24.4441 10.6852
1 27.8211 25.2442 9.88965
1 27.0553 24.4446 9.89847
1 28.6482 25.2378 10.6852
1 29.4419 24.4441 10.6852
1 29.3539 25.2345 9.84969
1 28.6113 24.434 9.88032
1 0.075 23.6504 10.6852
1 0.868701 22.8567 10.6852
1 0.902584 23.6509 9.88739
1 0.145214 22.8522 9.87274
1 1.6624 23.6504 10.6852
1 2.4561 22.8567 10.6852
1 2.48653 23.6331 9.89036
1 1.67054 22.8615 9.88281
1 3.2498 23.6504 10.6852
1 4.0435 22.8567 10.6852
1 4.03217 23.6701 9.89077
1 3.27176 22.8486 9.85818
1 4.8372 23.6504 10.6852
1 5.6309 22.8567 10.6852
1 5.61681 23.6735 9.9104
1 4.84539 22.867 9.88621
1 6.4246 23.6504 10.6852
1 7.2183 22.8567 10.6852
1 7.19541 23.6482 9.89915
1 6.44483 22.8532 9.89584
1 8.01201 23.6504 10.6852
1 8.80571 22.8567 10.6852
1 8.83863 23.6477 9.89109
1 8.01546 22.8942 9.88518
1 9.59941 23.6504 10.6852
1 10.3931 22.8567 10.6852
1 10.4076 23.6356 9.89405
1 9.59987 22.8473 9.87586
1 11.1868 23.6504 10.6852
1 11.9805 22.8567 10.6852
1 11.9856 23.6638 9.90318
1 11.1808 22.8646 9.8971
1 12.7742 23.6504 10.6852
1 13.5679 22.8567 10.6852
1 13.5947 23.6337 9.86805
1 12.7798 22.855 9.88895
1 14.3616 23.6504 10.6852
1 15.1553 22.8567 10.6852
1 15.1543 23.6623 9.91237
1 14.3531 22.8366 9.88924
1 15.949 23.6504 10.6852
1 16.7427 22.8567 10.6852
1 16.7482 23.6514 9.89851
1 15.9393 22.8537 9.90999
1 17.5364 23.6504 10.6852
1 18.3301 22.8567 10.6852
1 18.3239 23.6393 9.87716
1 17.5071 22.8619 9.87876
1 19.1238 23.6504 10.6852
1 19.9175 22.8567 10.6852
1 19.9261 23.6474 9.8716
1 19.1165 22.8528 9.89184
1 20.7112 23.6504 10.6852
1 21.5049 22.8567 10.6852
1 21.5196 23.6345 9.89823
1 20.692 22.8395 9.88572
1 22.2986 23.6504 10.6852
1 23.0923 22.8567 10.6852
1 23.1274 23.6561 9.88785
1 22.2857 22.8545 9.88193
1 23.886 23.6504 10.6852
1 24.6797 22.8567 10.6852
1 24.6831 23.6476 9.89367
1 23.9111 22.8625 9.90227
1 25.4734 23.6504 10.6852
1 26.2671 22.8567 10.6852
1 26.2573 23.6499 9.86801
1 25.4513 22.8405 9.89891
1 27.0608 23.6504 10.6852
1 27.8545 22.8567 10.6852
1 27.8247 23.6621 9.88753
1 27.0409 22.8542 9.92133
1 28.6482 23.6504 10.6852
1 29.4419 22.8567 10.6852
1 29.374 23.6334 9.88843
1 28.6118 22.8437 9.9311
1 0.075 22.063 10.6852
1 0.868701 21.2693 10.6852
1 0.882955 22.0448 9.89113
1 0.143469 21.2826 9.84371
1 1.6624 22.063 10.6852
1 2.4561 21.2693 10.6852
1 2.45641 22.0876 9.89649
1 1.67493 21.2883 9.87083
1 3.2498 22.063 10.6852
1 4.0435 21.2693 10.6852
1 4.06229 22.0818 9.90884
1 3.26138 21.257 9.87198
1 4.8372 22.063 10.6852
1 5.6309 21.2693 10.6852
1 5.6137 22.0708 9.90186
1 4.84307 21.2684 9.92037
1 6.4246 22.063 10.6852
1 7.2183 21.2693 10.6852
1 7.23942 22.0582 9.9065
1 6.40762 21.2629 9.89773
1 8.01201 22.063 10.6852
1 8.80571 21.2693 10.6852
1 8.81974 22.0638 9.90617
1 8.0348 21.252 9.85705
1 9.59941 22.063 10.6852
1 10.3931 21.2693 10.6852
1 10.3843 22.0522 9.8931
1 9.60571 21.2675 9.89846
1 11.1868 22.063 10.6852
1 11.9805 21.2693 10.6852
1 11.9629 22.0755 9.89579
1 11.1788 21.2442 9.88589
1 12.7742 22.063 10.6852
1 13.5679 21.2693 10.6852
1 13.5698 22.0666 9.86088
1 12.7803 21.2761 9.89915
1 14.3616 22.063 10.6852
1 15.1553 21.2693 10.6852
1 15.1706 22.0408 9.89334
1 14.3371 21.2835 9.89238
1 15.949 22.063 10.6852
1 16.7427 21.2693 10.6852
1 16.7073 22.0589 9.89008
1 15.948 21.2677 9.89076
1 17.5364 22.063 10.6852
1 18.3301 21.2693 10.6852
1 18.3277 22.065 9.91483
1 17.5429 21.2467 9.90021
1 19.1238 22.063 10.6852
1 19.9175 21.2693 10.6852
1 19.9204 22.0591 9.89504
1 19.0908 21.2626 9.89277
1 20.7112 22.063 10.6852
1 21.5049 21.2693 10.6852
1 21.4994 22.0624 9.8653
1 20.7096 21.2397 9.89226
1 22.2986 22.063 10.6852
1 23.0923 21.2693 10.6852
1 23.1052 22.0713 9.90192
1 22.3139 21.2861 9.89381
1 23.886 22.063 10.6852
1 24.6797 21.2693 10.6852
1 24.68 22.0502 9.88325
1 23.9031 21.2974 9.89843
1 25.4734 22.063 10.6852
1 26.2671 21.2693 10.6852
1 26.2599 22.0494 9.88902
1 25.4539 21.2471 9.87989
1 27.0608 22.063 10.6852
1 27.8545 21.2693 10.6852
1 27.8218 22.0468 9.89296
1 27.0211 21.2531 9.89346
1 28.6482 22.063 10.6852
1 29.4419 21.2693 10.6852
1 29.3638 22.0439 9.84378
1 28.6182 21.2567 9.8996
1 0.075 20.4756 10.6852
1 0.868701 19.6819 10.6852
1 0.878829 20.4877 9.88778
1 0.133496 19.7001 9.86435
1 1.6624 20.4756 10.6852
1 2.4561 19.6819 10.6852
1 2.45943 20.4607 9.88438
1 1.65526 19.6664 9.87696
1 3.2498 20.4756 10.6852
1 4.0435 19.6819 10.6852
1 4.05299 20.4555 9.89138
1 3.29608 19.6751 9.90077
1 4.8372 20.4756 10.6852
1 5.6309 19.6819 10.6852
1 5.63395 20.46 9.89407
1 4.84221 19.6862 9.89115
1 6.4246 20.4756 10.6852
1 7.2183 19.6819 10.6852
1 7.20705 20.4634 9.91119
1 6.43858 19.6861 9.89481
1 8.01201 20.4756 10.6852
1 8.80571 19.6819 10.6852
1 8.8299 20.4715 9.89954
1 8.00657 19.6882 9.91473
1 9.59941 20.4756 10.6852
1 10.3931 19.6819 10.6852
1 10.3995 20.4689 9.88838
1 9.60575 19.6708 9.88251
1 11.1868 20.4756 10.6852
1 11.9805 19.6819 10.6852
1 11.9768 20.481 9.88884
1 11.1888 19.6929 9.90203
1 12.7742 20.4756 10.6852
1 13.5679 19.6819 10.6852
1 13.5762 20.4803 9.87407
1 12.7611 19.6921 9.88799
1 14.3616 20.4756 10.6852
1 15.1553 19.6819 10.6852
1 15.1568 20.4898 9.88221
1 14.3422 19.6996 9.8811
1 15.949 20.4756 10.6852
1 16.7427 19.6819 10.6852
1 16.7488 20.4689 9.87059
1 15.9383 19.6634 9.88671
1 17.5364 20.4756 10.6852
1 18.3301 19.6819 10.6852
1 18.3368 20.4539 9.90079
1 17.5366 19.6755 9.8735
1 19.1238 20.4756 10.6852
1 19.9175 19.6819 10.6852
1 19.912 20.4828 9.89689
1 19.122 19.6808 9.88808
1 20.7112 20.4756 10.6852
1 21.5049 19.6819 10.6852
1 21.5229 20.4689 9.89442
1 20.6915 19.697 9.88908
1 22.2986 20.4756 10.6852
1 23.0923 19.6819 10.6852
1 23.0844 20.4647 9.8885
1 22.286 19.702 9.87541
1 23.886 20.4756 10.6852
1 24.6797 19.6819 10.6852
1 24.6726 20.4961 9.90486
1 23.8764 19.6959 9.89116
1 25.4734 20.4756 10.6852
1 26.2671 19.6819 10.6852
1 26.2407 20.4646 9.88948
1 25.4553 19.6628 9.91849
1 27.0608 20.4756 10.6852
1 27.8545 19.6819 10.6852
1 27.8196 20.4815 9.88266
1 27.0174 19.7 9.88459
1 28.6482 20.4756 10.6852
1 29.4419 19.6819 10.6852
1 29.3535 20.4847 9.86402
1 28.6182 19.6747 9.87714
1 0.075 18.8882 10.6852
1 0.868701 18.0945 10.6852
1 0.879995 18.8891 9.86074
1 0.135522 18.1013 9.85443
1 1.6624 18.8882 10.6852
1 2.4561 18.0945 10.6852
1 2.47204 18.8878 9.88892
1 1.68668 18.1157 9.89135
1 3.2498 18.8882 10.6852
1 4.0435 18.0945 10.6852
1 4.0586 18.8858 9.90837
1 3.26241 18.1141 9.89756
1 4.8372 18.8882 10.6852
1 5.6309 18.0945 10.6852
1 5.64203 18.8893 9.89655
1 4.86062 18.094 9.88262
1 6.4246 18.8882 10.6852
1 7.2183 18.0945 10.6852
1 7.22675 18.9001 9.90766
1 6.44574 18.1144 9.89461
1 8.01201 18.8882 10.6852
1 8.80571 18.0945 10.6852
1 8.80465 18.8913 9.90927
1 8.02595 18.0876 9.89142
1 9.59941 18.8882 10.6852
1 10.3931 18.0945 10.6852
1 10.3877 18.8908 9.89717
1 9.62305 18.1146 9.88909
1 11.1868 18.8882 10.6852
1 11.9805 18.0945 10.6852
1 11.9823 18.8716 9.90587
1 11.1999 18.1041 9.8882
1 12.7742 18.8882 10.6852
1 13.5679 18.0945 10.6852
1 13.5697 18.8992 9.85992
1 12.7754 18.0907 9.89525
1 14.3616 18.8882 10.6852
1 15.1553 18.0945 10.6852
1 15.1603 18.8902 9.87024
1 14.3592 18.0827 9.87619
1 15.949 18.8882 10.6852
1 16.7427 18.0945 10.6852
1 16.7558 18.8795 9.88451
1 15.9497 18.109 9.86073
1 17.5364 18.8882 10.6852
1 18.3301 18.0945 10.6852
1 18.3374 18.8898 9.87722
1 17.5431 18.1191 9.87893
1 19.1238 18.8882 10.6852
1 19.9175 18.0945 10.6852
1 19.9032 18.8877 9.90617
1 19.1106 18.078 9.9056
1 20.7112 18.8882 10.6852
1 21.5049 18.0945 10.6852
1 21.4888 18.8948 9.86887
1 20.715 18.0921 9.88955
1 22.2986 18.8882 10.6852
1 23.0923 18.0945 10.6852
1 23.0865 18.8726 9.89945
1 22.2626 18.0855 9.88235
1 23.886 18.8882 10.6852
1 24.6797 18.0945 10.6852
1 24.7007 18.8917 9.86429
1 23.8856 18.0895 9.89196
1 25.4734 18.8882 10.6852
1 26.2671 18.0945 10.6852
1 26.2692 18.9053 9.89663
1 25.4653 18.0897 9.88096
1 27.0608 18.8882 10.6852
1 27.8545 18.0945 10.6852
1 27.8344 18.8835 9.89281
1 27.0495 18.1038 9.88266
1 28.6482 18.8882 10.6852
1 29.4419 18.0945 10.6852
1 29.3994 18.8811 9.84881
1 28.628 18.0935 9.90363
1 0.075 17.3008 10.6852
1 0.868701 16.5071 10.6852
1 0.932469 17.3349 9.89029
1 0.161185 16.5293 9.8635
1 1.6624 17.3008 10.6852
1 2.4561 16.5071 10.6852
1 2.44165 17.3064 9.90167
1 1.67541 16.4831 9.87787
1 3.2498 17.3008 10.6852
1 4.0435 16.5071 10.6852
1 4.03573 17.3042 9.90872
1 3.25154 16.5188 9.90818
1 4.8372 17.3008 10.6852
1 5.6309 16.5071 10.6852
1 5.67321 17.3277 9.88999
1 4.84485 16.5288 9.90327
1 6.4246 17.3008 10.6852
1 7.2183 16.5071 10.6852
1 7.21186 17.3141 9.8825
1 6.44429 16.5095 9.90373
1 8.01201 17.3008 10.6852
1 8.80571 16.5071 10.6852
1 8.81076 17.3137 9.91445
1 8.01962 16.519 9.89974
1 9.59941 17.3008 10.6852
1 10.3931 16.5071 10.6852
1 10.3918 17.3279 9.90438
1 9.60642 16.5426 9.89956
1 11.1868 17.3008 10.6852
1 11.9805 16.5071 10.6852
1 11.9748 17.2981 9.864
1 11.1747 16.5215 9.87456
1 12.7742 17.3008 10.6852
1 13.5679 16.5071 10.6852
1 13.5624 17.3066 9.89446
1 12.7899 16.5026 9.8988
1 14.3616 17.3008 10.6852
1 15.1553 16.5071 10.6852
1 15.1619 17.3356 9.9061
1 14.3829 16.5055 9.88142
1 15.949 17.3008 10.6852
1 16.7427 16.5071 10.6852
1 16.7395 17.2912 9.90349
1 15.9434 16.5116 9.87808
1 17.5364 17.3008 10.6852
1 18.3301 16.5071 10.6852
1 18.3289 17.2739 9.89314
1 17.5302 16.4799 9.88277
1 19.1238 17.3008 10.6852
1 19.9175 16.5071 10.6852
1 19.8892 17.3072 9.87561
1 19.1318 16.5102 9.88636
1 20.7112 17.3008 10.6852
1 21.5049 16.5071 10.6852
1 21.5103 17.2939 9.88414
1 20.72 16.5249 9.89613
1 22.2986 17.3008 10.6852
1 23.0923 16.5071 10.6852
1 23.0732 17.2836 9.89439
1 22.3035 16.4991 9.8815
1 23.886 17.3008 10.6852
1 24.6797 16.5071 10.6852
1 24.6926 17.304 9.90911
1 23.897 16.5229 9.87707
1 25.4734 17.3008 10.6852
1 26.2671 16.5071 10.6852
1 26.2781 17.2844 9.88885
1 25.4717 16.4866 9.89996
1 27.0608 17.3008 10.6852
1 27.8545 16.5071 10.6852
1 27.8485 17.3152 9.89235
1 27.0789 16.5082 9.88882
1 28.6482 17.3008 10.6852
1 29.4419 16.5071 10.6852
1 29.3851 17.2802 9.84842
1 28.6059 16.4959 9.89168
1 0.075 15.7134 10.6852
1 0.868701 14.9197 10.6852
1 0.875907 15.7404 9.87398
1 0.125925 14.9362 9.84364
1 1.6624 15.7134 10.6852
1 2.4561 14.9197 10.6852
1 2.47257 15.7042 9.91265
1 1.67188 14.9312 9.87254
1 3.2498 15.7134 10.6852
1 4.0435 14.9197 10.6852
1 4.05025 15.7314 9.88224
1 3.25448 14.9182 9.90229
1 4.8372 15.7134 10.6852
1 5.6309 14.9197 10.6852
1 5.63784 15.6995 9.8857
1 4.82034 14.908 9.89348
1 6.4246 15.7134 10.6852
1 7.2183 14.9197 10.6852
1 7.20773 15.7121 9.88714
1 6.42321 14.9023 9.88473
1 8.01201 15.7134 10.6852
1 8.80571 14.9197 10.6852
1 8.79494 15.7105 9.86383
1 8.01016 14.9023 9.88265
1 9.59941 15.7134 10.6852
1 10.3931 14.9197 10.6852
1 10.3677 15.7377 9.90211
1 9.61783 14.9124 9.88849
1 11.1868 15.7134 10.6852
1 11.9805 14.9197 10.6852
1 11.9658 15.7212 9.89878
1 11.1654 14.9286 9.90265
1 12.7742 15.7134 10.6852
1 13.5679 14.9197 10.6852
1 13.5665 15.6892 9.88791
1 12.7835 14.8844 9.90647
1 14.3616 15.7134 10.6852
1 15.1553 14.9197 10.6852
1 15.1537 15.7027 9.89587
1 14.3415 14.9143 9.89433
1 15.949 15.7134 10.6852
1 16.7427 14.9197 10.6852
1 16.7489 15.7412 9.89593
1 15.9566 14.9556 9.91371
1 17.5364 15.7134 10.6852
1 18.3301 14.9197 10.6852
1 18.3631 15.7149 9.87701
1 17.5461 14.9249 9.89262
1 19.1238 15.7134 10.6852
1 19.9175 14.9197 10.6852
1 19.9066 15.7228 9.89051
1 19.1194 14.925 9.90988
1 20.7112 15.7134 10.6852
1 21.5049 14.9197 10.6852
1 21.5144 15.7076 9.88116
1 20.692 14.9173 9.90599
1 22.2986 15.7134 10.6852
1 23.0923 14.9197 10.6852
1 23.0988 15.7095 9.89816
1 22.2906 14.9043 9.90208
1 23.886 15.7134 10.6852
1 24.6797 14.9197 10.6852
1 24.6612 15.7027 9.91024
1 23.8609 14.914 9.89583
1 25.4734 15.7134 10.6852
1 26.2671 14.9197 10.6852
1 26.25 15.7048 9.89
1 25.4851 14.8982 9.89318
1 27.0608 15.7134 10.6852
1 27.8545 14.9197 10.6852
1 27.86 15.6672 9.8842
1 27.0513 14.9011 9.88841
1 28.6482 15.7134 10.6852
1 29.4419 14.9197 10.6852
1 29.3816 15.7224 9.8451
1 28.6464 14.9172 9.86928
1 0.075 14.126 10.6852
1 0.868701 13.3323 10.6852
1 0.913997 14.1283 9.86255
1 0.142771 13.3457 9.86842
1 1.6624 14.126 10.6852
1 2.4561 13.3323 10.6852
1 2.46281 14.1242 9.88573
1 1.6892 13.3524 9.8712
1 3.2498 14.126 10.6852
1 4.0435 13.3323 10.6852
1 4.03644 14.1179 9.893
1 3.25474 13.3624 9.88966
1 4.8372 14.126 10.6852
1 5.6309 13.3323 10.6852
1 5.6504 14.1137 9.90216
1 4.8459 13.3329 9.90371
1 6.4246 14.126 10.6852
1 7.2183 13.3323 10.6852
1 7.20644 14.103 9.87407
1 6.40713 13.3434 9.87177
1 8.01201 14.126 10.6852
1 8.80571 13.3323 10.6852
1 8.80631 14.124 9.8889
1 8.00274 13.3288 9.90452
1 9.59941 14.126 10.6852
1 10.3931 13.3323 10.6852
1 10.4061 14.1215 9.87706
1 9.62592 13.3353 9.89055
1 11.1868 14.126 10.6852
1 11.9805 13.3323 10.6852
1 11.9654 14.1282 9.8795
1 11.1845 13.3166 9.90336
1 12.7742 14.126 10.6852
1 13.5679 13.3323 10.6852
1 13.5766 14.1367 9.8942
1 12.7867 13.3455 9.9083
1 14.3616 14.126 10.6852
1 15.1553 13.3323 10.6852
1 15.1846 14.1246 9.87639
1 14.4019 13.3482 9.87745
1 15.949 14.126 10.6852
1 16.7427 13.3323 10.6852
1 16.7255 14.1414 9.89577
1 15.9622 13.331 9.90714
1 17.5364 14.126 10.6852
1 18.3301 13.3323 10.6852
1 18.3194 14.134 9.87603
1 17.5157 13.3515 9.89282
1 19.1238 14.126 10.6852
1 19.9175 13.3323 10.6852
1 19.9023 14.1132 9.90433
1 19.1199 13.3133 9.88037
1 20.7112 14.126 10.6852
1 21.5049 13.3323 10.6852
1 21.5062 14.1471 9.89071
1 20.7188 13.3388 9.89217
1 22.2986 14.126 10.6852
1 23.0923 13.3323 10.6852
1 23.1079 14.1459 9.90667
1 22.2896 13.3462 9.88936
1 23.886 14.126 10.6852
1 24.6797 13.3323 10.6852
1 24.7061 14.1214 9.90362
1 23.8735 13.354 9.8824
1 25.4734 14.126 10.6852
1 26.2671 13.3323 10.6852
1 26.2744 14.1176 9.87205
1 25.4512 13.3186 9.90927
1 27.0608 14.126 10.6852
1 27.8545 13.3323 10.6852
1 27.856 14.1148 9.8947
1 27.0651 13.3019 9.88486
1 28.6482 14.126 10.6852
1 29.4419 13.3323 10.6852
1 29.3776 14.1314 9.86104
1 28.6352 13.3317 9.86664
1 0.075 12.5386 10.6852
1 0.868701 11.7449 10.6852
1 0.912689 12.5265 9.88111
1 0.144163 11.7496 9.85965
1 1.6624 12.5386 10.6852
1 2.4561 11.7449 10.6852
1 2.48064 12.5378 9.87131
1 1.68395 11.7441 9.8828
1 3.2498 12.5386 10.6852
1 4.0435 11.7449 10.6852
1 4.03269 12.5393 9.88064
1 3.27381 11.7302 9.90673
1 4.8372 12.5386 10.6852
1 5.6309 11.7449 10.6852
1 5.62138 12.5203 9.8968
1 4.83507 11.7348 9.89536
1 6.4246 12.5386 10.6852
1 7.2183 11.7449 10.6852
1 7.23865 12.5304 9.88632
1 6.42351 11.748 9.87424
1 8.01201 12.5386 10.6852
1 8.80571 11.7449 10.6852
1 8.8192 12.5439 9.89065
1 8.03488 11.7357 9.88533
1 9.59941 12.5386 10.6852
1 10.3931 11.7449 10.6852
1 10.3708 12.5285 9.90447
1 9.60124 11.7452 9.9022
1 11.1868 12.5386 10.6852
1 11.9805 11.7449 10.6852
1 11.9907 12.5246 9.91045
1 11.1785 11.7459 9.91196
1 12.7742 12.5386 10.6852
1 13.5679 11.7449 10.6852
1 13.57 12.5452 9.88935
1 12.8016 11.7285 9.90542
1 14.3616 12.5386 10.6852
1 15.1553 11.7449 10.6852
1 15.1629 12.5423 9.90911
1 14.3706 11.7323 9.88942
1 15.949 12.5386 10.6852
1 16.7427 11.7449 10.6852
1 16.764 12.5319 9.89357
1 15.9464 11.7264 9.90053
1 17.5364 12.5386 10.6852
1 18.3301 11.7449 10.6852
1 18.3275 12.5269 9.87501
1 17.5508 11.7485 9.90345
1 19.1238 12.5386 10.6852
1 19.9175 11.7449 10.6852
1 19.9095 12.5335 9.87043
1 19.1256 11.7426 9.88028
1 20.7112 12.5386 10.6852
1 21.5049 11.7449 10.6852
1 21.5037 12.5098 9.89205
1 20.7199 11.7245 9.87972
1 22.2986 12.5386 10.6852
1 23.0923 11.7449 10.6852
1 23.0611 12.5428 9.90115
1 22.3071 11.7446 9.88499
1 23.886 12.5386 10.6852
1 24.6797 11.7449 10.6852
1 24.6335 12.5504 9.9218
1 23.8691 11.7658 9.89754
1 25.4734 12.5386 10.6852
1 26.2671 11.7449 10.6852
1 26.2516 12.55 9.88248
1 25.4651 11.7462 9.89166
1 27.0608 12.5386 10.6852
1 27.8545 11.7449 10.6852
1 27.832 12.5233 9.86786
1 27.0654 11.7677 9.88799
1 28.6482 12.5386 10.6852
1 29.4419 11.7449 10.6852
1 29.3902 12.5384 9.86298
1 28.6177 11.7735 9.88501
1 0.075 10.9512 10.6852
1 0.868701 10.1575 10.6852
1 0.895983 10.9219 9.88298
1 0.115908 10.1602 9.86311
1 1.6624 10.9512 10.6852
1 2.4561 10.1575 10.6852
1 2.44781 10.9375 9.8931
1 1.69186 10.142 9.86775
1 3.2498 10.9512 10.6852
1 4.0435 10.1575 10.6852
1 4.05813 10.9196 9.90014
1 3.22691 10.149 9.89084
1 4.8372 10.9512 10.6852
1 5.6309 10.1575 10.6852
1 5.64824 10.9419 9.88983
1 4.86702 10.1574 9.91761
1 6.4246 10.9512 10.6852
1 7.2183 10.1575 10.6852
1 7.21979 10.9353 9.90147
1 6.40717 10.1482 9.88012
1 8.01201 10.9512 10.6852
1 8.80571 10.1575 10.6852
1 8.7892 10.9433 9.8924
1 8.0175 10.1478 9.88143
1 9.59941 10.9512 10.6852
1 10.3931 10.1575 10.6852
1 10.401 10.9614 9.90334
1 9.60866 10.1779 9.88133
1 11.1868 10.9512 10.6852
1 11.9805 10.1575 10.6852
1 11.9759 10.9401 9.87686
1 11.1851 10.1325 9.88411
1 12.7742 10.9512 10.6852
1 13.5679 10.1575 10.6852
1 13.5839 10.9415 9.89687
1 12.7712 10.1725 9.89211
1 14.3616 10.9512 10.6852
1 15.1553 10.1575 10.6852
1 15.1484 10.9415 9.89378
1 14.3483 10.1415 9.90008
1 15.949 10.9512 10.6852
1 16.7427 10.1575 10.6852
1 16.7546 10.9574 9.89899
1 15.9637 10.1434 9.86064
1 17.5364 10.9512 10.6852
1 18.3301 10.1575 10.6852
1 18.3148 10.9496 9.89529
1 17.548 10.1638 9.88698
1 19.1238 10.9512 10.6852
1 19.9175 10.1575 10.6852
1 19.9136 10.9544 9.88449
1 19.1234 10.1663 9.88711
1 20.7112 10.9512 10.6852
1 21.5049 10.1575 10.6852
1 21.5217 10.9582 9.89082
1 20.7267 10.1738 9.86805
1 22.2986 10.9512 10.6852
1 23.0923 10.1575 10.6852
1 23.0981 10.9507 9.89865
1 22.2849 10.1805 9.89434
1 23.886 10.9512 10.6852
1 24.6797 10.1575 10.6852
1 24.6793 10.9588 9.93267
1 23.8813 10.1682 9.91437
1 25.4734 10.9512 10.6852
1 26.2671 10.1575 10.6852
1 26.2861 10.9733 9.92919
1 25.4674 10.1653 9.88637
1 27.0608 10.9512 10.6852
1 27.8545 10.1575 10.6852
1 27.827 10.9459 9.88049
1 27.0459 10.1593 9.8784
1 28.6482 10.9512 10.6852
1 29.4419 10.1575 10.6852
1 29.3696 10.9475 9.86863
1 28.6197 10.1441 9.87425
1 0.075 9.36379 10.6852
1 0.868701 8.57009 10.6852
1 0.898379 9.36675 9.85171
1 0.142873 8.56354 9.8446
1 1.6624 9.36379 10.6852
1 2.4561 8.57009 10.6852
1 2.44441 9.35715 9.84438
1 1.65751 8.56669 9.8826
1 3.2498 9.36379 10.6852
1 4.0435 8.57009 10.6852
1 4.02709 9.37819 9.89775
1 3.25233 8.59939 9.88148
1 4.8372 9.36379 10.6852
1 5.6309 8.57009 10.6852
1 5.6236 9.37404 9.89873
1 4.84241 8.55997 9.90904
1 6.4246 9.36379 10.6852
1 7.2183 8.57009 10.6852
1 7.21837 9.35286 9.88364
1 6.42414 8.57377 9.89117
1 8.01201 9.36379 10.6852
1 8.80571 8.57009 10.6852
1 8.79938 9.35482 9.91003
1 7.99529 8.55159 9.88555
1 9.59941 9.36379 10.6852
1 10.3931 8.57009 10.6852
1 10.3834 9.3577 9.89786
1 9.5876 8.56599 9.87881
1 11.1868 9.36379 10.6852
1 11.9805 8.57009 10.6852
1 11.9736 9.35797 9.89479
1 11.1681 8.60607 9.90087
1 12.7742 9.36379 10.6852
1 13.5679 8.57009 10.6852
1 13.5535 9.36912 9.91442
1 12.7659 8.57755 9.91829
1 14.3616 9.36379 10.6852
1 15.1553 8.57009 10.6852
1 15.1841 9.32119 9.87802
1 14.3496 8.58563 9.89343
1 15.949 9.36379 10.6852
1 16.7427 8.57009 10.6852
1 16.7325 9.35344 9.90626
1 15.9462 8.56217 9.91469
1 17.5364 9.36379 10.6852
1 18.3301 8.57009 10.6852
1 18.3628 9.37331 9.9006
1 17.5399 8.57213 9.87481
1 19.1238 9.36379 10.6852
1 19.9175 8.57009 10.6852
1 19.9193 9.36671 9.88196
1 19.1166 8.56339 9.90805
1 20.7112 9.36379 10.6852
1 21.5049 8.57009 10.6852
1 21.5051 9.37583 9.89447
1 20.7161 8.56805 9.89451
1 22.2986 9.36379 10.6852
1 23.0923 8.57009 10.6852
1 23.095 9.37219 9.91095
1 22.2971 8.57336 9.91915
1 23.886 9.36379 10.6852
1 24.6797 8.57009 10.6852
1 24.6652 9.37701 9.91371
1 23.8778 8.55459 9.8981
1 25.4734 9.36379 10.6852
1 26.2671 8.57009 10.6852
1 26.258 9.36736 9.89209
1 25.4601 8.57462 9.89395
1 27.0608 9.36379 10.6852
1 27.8545 8.57009 10.6852
1 27.835 9.38101 9.88691
1 27.0457 8.60225 9.89803
1 28.6482 9.36379 10.6852
1 29.4419 8.57009 10.6852
1 29.3846 9.33293 9.86233
1 28.6214 8.5587 9.90569
1 0.075 7.77639 10.6852
1 0.868701 6.98268 10.6852
1 0.890946 7.75997 9.85596
1 0.147059 7.001 9.86953
1 1.6624 7.77639 10.6852
1 2.4561 6.98268 10.6852
1 2.48106 7.76808 9.88904
1 1.68235 7.01649 9.87923
1 3.2498 7.77639 10.6852
1 4.0435 6.98268 10.6852
1 4.05469 7.77731 9.87867
1 3.263 6.99548 9.86032
1 4.8372 7.77639 10.6852
1 5.6309 6.98268 10.6852
1 5.64111 7.7587 9.90236
1 4.85706 6.98276 9.87295
1 6.4246 7.77639 10.6852
1 7.2183 6.98268 10.6852
1 7.23459 7.77143 9.88078
1 6.41243 6.98404 9.89334
1 8.01201 7.77639 10.6852
1 8.80571 6.98268 10.6852
1 8.8183 7.7876 9.88835
1 8.00986 6.99358 9.89767
1 9.59941 7.77639 10.6852
1 10.3931 6.98268 10.6852
1 10.3871 7.80531 9.90527
1 9.61159 6.98797 9.89992
1 11.1868 7.77639 10.6852
1 11.9805 6.98268 10.6852
1 11.9555 7.78701 9.91093
1 11.1859 6.98826 9.87584
1 12.7742 7.77639 10.6852
1 13.5679 6.98268 10.6852
1 13.5596 7.78855 9.90384
1 12.7431 6.95519 9.88378
1 14.3616 7.77639 10.6852
1 15.1553 6.98268 10.6852
1 15.1479 7.76098 9.87767
1 14.3564 6.97794 9.90083
1 15.949 7.77639 10.6852
1 16.7427 6.98268 10.6852
1 16.7375 7.76986 9.87232
1 15.9593 7.00265 9.89463
1 17.5364 7.77639 10.6852
1 18.3301 6.98268 10.6852
1 18.3572 7.78511 9.87641
1 17.5411 6.98598 9.90708
1 19.1238 7.77639 10.6852
1 19.9175 6.98268 10.6852
1 19.9164 7.78677 9.90892
1 19.1232 6.98934 9.89673
1 20.7112 7.77639 10.6852
1 21.5049 6.98268 10.6852
1 21.5019 7.76343 9.92163
1 20.7 7.00607 9.89973
1 22.2986 7.77639 10.6852
1 23.0923 6.98268 10.6852
1 23.0967 7.78533 9.89901
1 22.3064 6.96989 9.89962
1 23.886 7.77639 10.6852
1 24.6797 6.98268 10.6852
1 24.6743 7.77838 9.89596
1 23.9125 6.9776 9.89442
1 25.4734 7.77639 10.6852
1 26.2671 6.98268 10.6852
1 26.2628 7.78651 9.89434
1 25.4819 6.96692 9.89018
1 27.0608 7.77639 10.6852
1 27.8545 6.98268 10.6852
1 27.8226 7.78222 9.89124
1 27.0366 6.98946 9.88807
1 28.6482 7.77639 10.6852
1 29.4419 6.98268 10.6852
1 29.3777 7.7757 9.86114
1 28.6245 6.9901 9.8757
1 0.075 6.18898 10.6852
1 0.868701 5.39528 10.6852
1 0.909973 6.19806 9.8834
1 0.140105 5.39961 9.86979
1 1.6624 6.18898 10.6852
1 2.4561 5.39528 10.6852
1 2.48062 6.16616 9.89405
1 1.65851 5.4142 9.88846
1 3.2498 6.18898 10.6852
1 4.0435 5.39528 10.6852
1 4.05594 6.2157 9.88605
1 3.25328 5.39809 9.90125
1 4.8372 6.18898 10.6852
1 5.6309 5.39528 10.6852
1 5.6439 6.19291 9.874
1 4.82712 5.40295 9.91484
1 6.4246 6.18898 10.6852
1 7.2183 5.39528 10.6852
1 7.19739 6.18589 9.89788
1 6.4195 5.41582 9.90701
1 8.01201 6.18898 10.6852
1 8.80571 5.39528 10.6852
1 8.81635 6.18163 9.91498