9376
Atoms. Timestep: 4000000
1 15 3.55271e-15 10.6431
1 15.7937 29.2063 10.6431
1 15.83 29.9411 9.81246
1 15.0758 29.1773 9.8048
1 16.5874 3.55271e-15 10.6431
1 17.3811 29.2063 10.6431
1 17.3958 29.9135 9.81158
1 16.6065 29.1543 9.80559
1 18.1748 3.55271e-15 10.6431
1 18.9685 29.2063 10.6431
1 18.9677 29.9355 9.8227
1 18.201 29.1627 9.84703
1 19.7622 3.55271e-15 10.6431
1 20.5559 29.2063 10.6431
1 20.5607 29.9346 9.82761
1 19.7613 29.1842 9.83166
1 21.3496 3.55271e-15 10.6431
1 22.1433 29.2063 10.6431
1 22.146 29.9261 9.82274
1 21.3648 29.1777 9.83161
1 22.937 3.55271e-15 10.6431
1 23.7307 29.2063 10.6431
1 23.724 29.9126 9.81995
1 22.9467 29.1787 9.84427
1 24.5244 3.55271e-15 10.6431
1 25.3181 29.2063 10.6431
1 25.3316 29.9282 9.81452
1 24.5451 29.1726 9.84909
1 26.1118 3.55271e-15 10.6431
1 26.9055 29.2063 10.6431
1 26.9213 29.9429 9.8025
1 26.1077 29.1557 9.83741
1 27.6992 3.55271e-15 10.6431
1 28.4929 29.2063 10.6431
1 28.4855 29.9116 9.8168
1 27.7095 29.1843 9.84241
1 29.2866 3.55271e-15 10.6431
1 0.08031 29.2063 10.6431
1 0.0875501 29.9459 9.81646
1 29.2944 29.197 9.83124
1 0.874011 3.55271e-15 10.6431
1 1.66771 29.2063 10.6431
1 1.6614 29.9324 9.80884
1 0.905272 29.1912 9.8386
1 2.46141 3.55271e-15 10.6431
1 3.25511 29.2063 10.6431
1 3.25754 29.9184 9.79824
1 2.46188 29.1741 9.87318
1 4.04881 3.55271e-15 10.6431
1 4.84251 29.2063 10.6431
1 4.84194 29.9027 9.78869
1 4.03098 29.1954 9.82489
1 5.63621 3.55271e-15 10.6431
1 6.42991 29.2063 10.6431
1 6.41661 29.9271 9.83075
1 5.65498 29.1888 9.83392
1 7.22361 3.55271e-15 10.6431
1 8.01732 29.2063 10.6431
1 8.02506 29.9289 9.80768
1 7.23117 29.1654 9.82069
1 8.81102 3.55271e-15 10.6431
1 9.60472 29.2063 10.6431
1 9.58672 29.9387 9.80313
1 8.79907 29.1621 9.85129
1 10.3984 3.55271e-15 10.6431
1 11.1921 29.2063 10.6431
1 11.1736 29.9269 9.79412
1 10.3837 29.1955 9.84523
1 11.9858 3.55271e-15 10.6431
1 12.7795 29.2063 10.6431
1 12.7478 29.9478 9.81197
1 11.9625 29.1893 9.83572
1 13.5732 3.55271e-15 10.6431
1 14.3669 29.2063 10.6431
1 14.2955 29.9531 9.76745
1 13.5614 29.1973 9.82906
1 15 28.4126 10.6431
1 15.7937 27.6189 10.6431
1 15.8262 28.4109 9.83003
1 15.0759 27.6188 9.81756
1 16.5874 28.4126 10.6431
1 17.3811 27.6189 10.6431
1 17.392 28.4031 9.85085
1 16.6199 27.6125 9.85235
1 18.1748 28.4126 10.6431
1 18.9685 27.6189 10.6431
1 18.9868 28.3767 9.85089
1 18.183 27.5926 9.85649
1 19.7622 28.4126 10.6431
1 20.5559 27.6189 10.6431
1 20.5686 28.4009 9.83272
1 19.7703 27.5728 9.8527
1 21.3496 28.4126 10.6431
1 22.1433 27.6189 10.6431
1 22.1471 28.3789 9.83903
1 21.3396 27.592 9.85754
1 22.937 28.4126 10.6431
1 23.7307 27.6189 10.6431
1 23.7448 28.3661 9.82695
1 22.9143 27.6082 9.83831
1 24.5244 28.4126 10.6431
1 25.3181 27.6189 10.6431
1 25.3149 28.4088 9.84391
1 24.5306 27.6154 9.86521
1 26.1118 28.4126 10.6431
1 26.9055 27.6189 10.6431
1 26.8921 28.3908 9.88795
1 26.11 27.6492 9.86486
1 27.6992 28.4126 10.6431
1 28.4929 27.6189 10.6431
1 28.5079 28.4253 9.82041
1 27.6887 27.626 9.83617
1 29.2866 28.4126 10.6431
1 0.08031 27.6189 10.6431
1 0.0942401 28.3878 9.85009
1 29.2464 27.5925 9.8345
1 0.874011 28.4126 10.6431
1 1.66771 27.6189 10.6431
1 1.68506 28.4003 9.87769
1 0.892298 27.6039 9.84786
1 2.46141 28.4126 10.6431
1 3.25511 27.6189 10.6431
1 3.26049 28.3928 9.84983
1 2.44994 27.6317 9.86457
1 4.04881 28.4126 10.6431
1 4.84251 27.6189 10.6431
1 4.84426 28.3832 9.82583
1 4.07195 27.6226 9.83849
1 5.63621 28.4126 10.6431
1 6.42991 27.6189 10.6431
1 6.43287 28.3981 9.86364
1 5.63161 27.586 9.86013
1 7.22361 28.4126 10.6431
1 8.01732 27.6189 10.6431
1 8.02293 28.3908 9.83813
1 7.21466 27.6246 9.85942
1 8.81102 28.4126 10.6431
1 9.60472 27.6189 10.6431
1 9.61476 28.4009 9.85381
1 8.81177 27.6228 9.85268
1 10.3984 28.4126 10.6431
1 11.1921 27.6189 10.6431
1 11.1773 28.391 9.85156
1 10.3948 27.6198 9.82737
1 11.9858 28.4126 10.6431
1 12.7795 27.6189 10.6431
1 12.7856 28.4146 9.83333
1 12.0023 27.5833 9.88552
1 13.5732 28.4126 10.6431
1 14.3669 27.6189 10.6431
1 14.3173 28.4029 9.8105
1 13.5391 27.5998 9.84273
1 15 26.8252 10.6431
1 15.7937 26.0315 10.6431
1 15.8381 26.8324 9.83454
1 15.0782 26.0362 9.82079
1 16.5874 26.8252 10.6431
1 17.3811 26.0315 10.6431
1 17.4181 26.8188 9.85281
1 16.6251 26.0235 9.83521
1 18.1748 26.8252 10.6431
1 18.9685 26.0315 10.6431
1 18.9826 26.7991 9.86866
1 18.1959 25.9958 9.86261
1 19.7622 26.8252 10.6431
1 20.5559 26.0315 10.6431
1 20.5601 26.802 9.86605
1 19.7518 26.0204 9.85831
1 21.3496 26.8252 10.6431
1 22.1433 26.0315 10.6431
1 22.1441 26.812 9.847
1 21.364 26.0236 9.83888
1 22.937 26.8252 10.6431
1 23.7307 26.0315 10.6431
1 23.7255 26.807 9.86673
1 22.955 26.0151 9.85304
1 24.5244 26.8252 10.6431
1 25.3181 26.0315 10.6431
1 25.2996 26.8126 9.86594
1 24.5228 26.0214 9.86769
1 26.1118 26.8252 10.6431
1 26.9055 26.0315 10.6431
1 26.9001 26.8135 9.86367
1 26.1212 26.0346 9.90507
1 27.6992 26.8252 10.6431
1 28.4929 26.0315 10.6431
1 28.4825 26.8048 9.85882
1 27.7056 26.0406 9.84606
1 29.2866 26.8252 10.6431
1 0.08031 26.0315 10.6431
1 0.0777795 26.8124 9.84159
1 29.2616 26.0404 9.86229
1 0.874011 26.8252 10.6431
1 1.66771 26.0315 10.6431
1 1.66391 26.8514 9.85247
1 0.854067 26.0189 9.86926
1 2.46141 26.8252 10.6431
1 3.25511 26.0315 10.6431
1 3.2314 26.8483 9.88237
1 2.43417 26.0497 9.8624
1 4.04881 26.8252 10.6431
1 4.84251 26.0315 10.6431
1 4.84726 26.8169 9.86103
1 4.05728 26.0311 9.85605
1 5.63621 26.8252 10.6431
1 6.42991 26.0315 10.6431
1 6.46992 26.8219 9.83381
1 5.64325 26.0122 9.8149
1 7.22361 26.8252 10.6431
1 8.01732 26.0315 10.6431
1 8.02376 26.8468 9.84908
1 7.20297 26.0379 9.8309
1 8.81102 26.8252 10.6431
1 9.60472 26.0315 10.6431
1 9.62659 26.83 9.82819
1 8.80073 26.0477 9.84005
1 10.3984 26.8252 10.6431
1 11.1921 26.0315 10.6431
1 11.1773 26.8118 9.84623
1 10.3908 26.0174 9.8661
1 11.9858 26.8252 10.6431
1 12.7795 26.0315 10.6431
1 12.7749 26.8112 9.85673
1 11.9967 26.0294 9.8366
1 13.5732 26.8252 10.6431
1 14.3669 26.0315 10.6431
1 14.2899 26.8239 9.82484
1 13.5511 26.004 9.86297
1 15 25.2378 10.6431
1 15.7937 24.4441 10.6431
1 15.8345 25.2348 9.85615
1 15.0391 24.445 9.81786
1 16.5874 25.2378 10.6431
1 17.3811 24.4441 10.6431
1 17.3672 25.2453 9.86262
1 16.5983 24.4452 9.84768
1 18.1748 25.2378 10.6431
1 18.9685 24.4441 10.6431
1 18.9813 25.24 9.84618
1 18.172 24.4569 9.84156
1 19.7622 25.2378 10.6431
1 20.5559 24.4441 10.6431
1 20.5396 25.2326 9.82406
1 19.7533 24.4138 9.84556
1 21.3496 25.2378 10.6431
1 22.1433 24.4441 10.6431
1 22.1165 25.2265 9.83152
1 21.3448 24.4545 9.84538
1 22.937 25.2378 10.6431
1 23.7307 24.4441 10.6431
1 23.7355 25.208 9.82538
1 22.931 24.4167 9.8483
1 24.5244 25.2378 10.6431
1 25.3181 24.4441 10.6431
1 25.3254 25.2526 9.83825
1 24.5397 24.4433 9.8422
1 26.1118 25.2378 10.6431
1 26.9055 24.4441 10.6431
1 26.8921 25.2574 9.85172
1 26.1084 24.4767 9.8255
1 27.6992 25.2378 10.6431
1 28.4929 24.4441 10.6431
1 28.4839 25.2466 9.84922
1 27.6855 24.4328 9.85252
1 29.2866 25.2378 10.6431
1 0.08031 24.4441 10.6431
1 0.0634762 25.2269 9.84382
1 29.2747 24.4378 9.8295
1 0.874011 25.2378 10.6431
1 1.66771 24.4441 10.6431
1 1.65401 25.244 9.86082
1 0.865575 24.4208 9.85643
1 2.46141 25.2378 10.6431
1 3.25511 24.4441 10.6431
1 3.2647 25.2373 9.84022
1 2.46529 24.4343 9.85813
1 4.04881 25.2378 10.6431
1 4.84251 24.4441 10.6431
1 4.84248 25.2547 9.84504
1 4.06093 24.4469 9.85212
1 5.63621 25.2378 10.6431
1 6.42991 24.4441 10.6431
1 6.42417 25.2439 9.84686
1 5.62369 24.4579 9.85159
1 7.22361 25.2378 10.6431
1 8.01732 24.4441 10.6431
1 8.0169 25.2573 9.85858
1 7.21518 24.4402 9.87059
1 8.81102 25.2378 10.6431
1 9.60472 24.4441 10.6431
1 9.60302 25.2392 9.84541
1 8.81872 24.4376 9.85526
1 10.3984 25.2378 10.6431
1 11.1921 24.4441 10.6431
1 11.2153 25.2329 9.85043
1 10.4016 24.4468 9.86074
1 11.9858 25.2378 10.6431
1 12.7795 24.4441 10.6431
1 12.766 25.2174 9.84821
1 11.9872 24.4349 9.84967
1 13.5732 25.2378 10.6431
1 14.3669 24.4441 10.6431
1 14.3062 25.2514 9.81911
1 13.5688 24.4121 9.84923
1 15 23.6504 10.6431
1 15.7937 22.8567 10.6431
1 15.8149 23.6695 9.86546
1 15.0687 22.864 9.80608
1 16.5874 23.6504 10.6431
1 17.3811 22.8567 10.6431
1 17.375 23.6526 9.83334
1 16.6094 22.8484 9.84539
1 18.1748 23.6504 10.6431
1 18.9685 22.8567 10.6431
1 18.9405 23.637 9.84231
1 18.1455 22.8433 9.83177
1 19.7622 23.6504 10.6431
1 20.5559 22.8567 10.6431
1 20.556 23.6485 9.83288
1 19.7658 22.8569 9.85698
1 21.3496 23.6504 10.6431
1 22.1433 22.8567 10.6431
1 22.1502 23.6378 9.84665
1 21.3461 22.8462 9.86009
1 22.937 23.6504 10.6431
1 23.7307 22.8567 10.6431
1 23.7567 23.6589 9.83978
1 22.929 22.8505 9.83634
1 24.5244 23.6504 10.6431
1 25.3181 22.8567 10.6431
1 25.3261 23.6458 9.84146
1 24.5422 22.8522 9.86532
1 26.1118 23.6504 10.6431
1 26.9055 22.8567 10.6431
1 26.8979 23.6543 9.83498
1 26.1024 22.8434 9.86074
1 27.6992 23.6504 10.6431
1 28.4929 22.8567 10.6431
1 28.483 23.6609 9.83307
1 27.7039 22.8601 9.87524
1 29.2866 23.6504 10.6431
1 0.08031 22.8567 10.6431
1 0.0626197 23.6422 9.87682
1 29.2802 22.8475 9.88783
1 0.874011 23.6504 10.6431
1 1.66771 22.8567 10.6431
1 1.68563 23.6503 9.86274
1 0.888885 22.8711 9.87762
1 2.46141 23.6504 10.6431
1 3.25511 22.8567 10.6431
1 3.2579 23.6272 9.8632
1 2.4605 22.8615 9.86629
1 4.04881 23.6504 10.6431
1 4.84251 22.8567 10.6431
1 4.84044 23.6781 9.84324
1 4.06558 22.853 9.8238
1 5.63621 23.6504 10.6431
1 6.42991 22.8567 10.6431
1 6.41086 23.6844 9.87222
1 5.64349 22.8595 9.83713
1 7.22361 23.6504 10.6431
1 8.01732 22.8567 10.6431
1 7.98847 23.6511 9.84483
1 7.24453 22.8559 9.84727
1 8.81102 23.6504 10.6431
1 9.60472 22.8567 10.6431
1 9.60816 23.6419 9.86228
1 8.81826 22.8722 9.8387
1 10.3984 23.6504 10.6431
1 11.1921 22.8567 10.6431
1 11.1964 23.6327 9.84861
1 10.3959 22.8546 9.83346
1 11.9858 23.6504 10.6431
1 12.7795 22.8567 10.6431
1 12.774 23.6657 9.86226
1 11.9903 22.8623 9.85859
1 13.5732 23.6504 10.6431
1 14.3669 22.8567 10.6431
1 14.3035 23.6381 9.80451
1 13.5572 22.8653 9.8316
1 15 22.063 10.6431
1 15.7937 21.2693 10.6431
1 15.8335 22.0432 9.81328
1 15.0558 21.2747 9.80151
1 16.5874 22.063 10.6431
1 17.3811 21.2693 10.6431
1 17.3757 22.0609 9.84594
1 16.6095 21.2748 9.83631
1 18.1748 22.063 10.6431
1 18.9685 21.2693 10.6431
1 18.9733 22.0637 9.87555
1 18.197 21.2636 9.85917
1 19.7622 22.063 10.6431
1 20.5559 21.2693 10.6431
1 20.5773 22.0594 9.84982
1 19.7463 21.2533 9.85113
1 21.3496 22.063 10.6431
1 22.1433 21.2693 10.6431
1 22.1385 22.0729 9.82989
1 21.3615 21.2433 9.85315
1 22.937 22.063 10.6431
1 23.7307 21.2693 10.6431
1 23.7378 22.0791 9.86033
1 22.9496 21.2892 9.85774
1 24.5244 22.063 10.6431
1 25.3181 21.2693 10.6431
1 25.3068 22.0432 9.86628
1 24.5279 21.301 9.85144
1 26.1118 22.063 10.6431
1 26.9055 21.2693 10.6431
1 26.9199 22.0425 9.84164
1 26.1069 21.2524 9.83895
1 27.6992 22.063 10.6431
1 28.4929 21.2693 10.6431
1 28.4882 22.0541 9.8422
1 27.6924 21.2412 9.86035
1 29.2866 22.063 10.6431
1 0.08031 21.2693 10.6431
1 0.089873 22.0526 9.8559
1 29.2799 21.2627 9.87316
1 0.874011 22.063 10.6431
1 1.66771 21.2693 10.6431
1 1.669 22.043 9.85767
1 0.85851 21.2779 9.85512
1 2.46141 22.063 10.6431
1 3.25511 21.2693 10.6431
1 3.25592 22.0794 9.86597
1 2.47786 21.2784 9.82973
1 4.04881 22.063 10.6431
1 4.84251 21.2693 10.6431
1 4.84022 22.0732 9.87878
1 4.04947 21.2528 9.84155
1 5.63621 22.063 10.6431
1 6.42991 21.2693 10.6431
1 6.41273 22.0727 9.84573
1 5.65819 21.2657 9.86324
1 7.22361 22.063 10.6431
1 8.01732 21.2693 10.6431
1 8.03852 22.0552 9.87489
1 7.21675 21.2559 9.85477
1 8.81102 22.063 10.6431
1 9.60472 21.2693 10.6431
1 9.62428 22.0624 9.8414
1 8.83899 21.2527 9.82745
1 10.3984 22.063 10.6431
1 11.1921 21.2693 10.6431
1 11.1746 22.0549 9.84607
1 10.4149 21.2596 9.8571
1 11.9858 22.063 10.6431
1 12.7795 21.2693 10.6431
1 12.7669 22.0776 9.85708
1 11.9705 21.247 9.86023
1 13.5732 22.063 10.6431
1 14.3669 21.2693 10.6431
1 14.3172 22.0782 9.80085
1 13.5713 21.2799 9.86795
1 15 20.4756 10.6431
1 15.7937 19.6819 10.6431
1 15.8355 20.4971 9.82687
1 15.0598 19.6969 9.81324
1 16.5874 20.4756 10.6431
1 17.3811 19.6819 10.6431
1 17.393 20.4706 9.8255
1 16.6023 19.6632 9.85315
1 18.1748 20.4756 10.6431
1 18.9685 19.6819 10.6431
1 18.9744 20.4542 9.86475
1 18.184 19.6783 9.84925
1 19.7622 20.4756 10.6431
1 20.5559 19.6819 10.6431
1 20.5554 20.4814 9.8646
1 19.7739 19.6746 9.84865
1 21.3496 20.4756 10.6431
1 22.1433 19.6819 10.6431
1 22.1615 20.4675 9.85706
1 21.3366 19.698 9.84923
1 22.937 20.4756 10.6431
1 23.7307 19.6819 10.6431
1 23.7242 20.4694 9.83498
1 22.9193 19.7019 9.83955
1 24.5244 20.4756 10.6431
1 25.3181 19.6819 10.6431
1 25.3225 20.4981 9.86201
1 24.5196 19.702 9.84896
1 26.1118 20.4756 10.6431
1 26.9055 19.6819 10.6431
1 26.8888 20.4557 9.85147
1 26.0983 19.6587 9.8716
1 27.6992 20.4756 10.6431
1 28.4929 19.6819 10.6431
1 28.4933 20.4832 9.83333
1 27.6846 19.7006 9.85207
1 29.2866 20.4756 10.6431
1 0.08031 19.6819 10.6431
1 0.0623137 20.4662 9.86065
1 29.2957 19.6776 9.84372
1 0.874011 20.4756 10.6431
1 1.66771 19.6819 10.6431
1 1.65968 20.4875 9.86869
1 0.872662 19.6985 9.85959
1 2.46141 20.4756 10.6431
1 3.25511 19.6819 10.6431
1 3.25576 20.4518 9.84984
1 2.44847 19.6618 9.86022
1 4.04881 20.4756 10.6431
1 4.84251 19.6819 10.6431
1 4.85302 20.4537 9.86995
1 4.08221 19.6674 9.8622
1 5.63621 20.4756 10.6431
1 6.42991 19.6819 10.6431
1 6.43818 20.4686 9.84043
1 5.63699 19.6908 9.82728
1 7.22361 20.4756 10.6431
1 8.01732 19.6819 10.6431
1 8.01294 20.4717 9.86194
1 7.24559 19.687 9.85158
1 8.81102 20.4756 10.6431
1 9.60472 19.6819 10.6431
1 9.62578 20.4737 9.85764
1 8.80332 19.6931 9.86928
1 10.3984 20.4756 10.6431
1 11.1921 19.6819 10.6431
1 11.1962 20.4699 9.8528
1 10.41 19.6779 9.83803
1 11.9858 20.4756 10.6431
1 12.7795 19.6819 10.6431
1 12.7748 20.4786 9.86055
1 11.9973 19.6907 9.86162
1 13.5732 20.4756 10.6431
1 14.3669 19.6819 10.6431
1 14.326 20.4755 9.80979
1 13.5356 19.6904 9.8456
1 15 18.8882 10.6431
1 15.7937 18.0945 10.6431
1 15.8204 18.889 9.83177
1 15.0411 18.077 9.82993
1 16.5874 18.8882 10.6431
1 17.3811 18.0945 10.6431
1 17.3885 18.8742 9.85066
1 16.5978 18.1021 9.82653
1 18.1748 18.8882 10.6431
1 18.9685 18.0945 10.6431
1 18.9697 18.8832 9.8409
1 18.1629 18.1183 9.8429
1 19.7622 18.8882 10.6431
1 20.5559 18.0945 10.6431
1 20.5398 18.8847 9.87241
1 19.752 18.0775 9.85488
1 21.3496 18.8882 10.6431
1 22.1433 18.0945 10.6431
1 22.1151 18.8885 9.83575
1 21.3575 18.09 9.85717
1 22.937 18.8882 10.6431
1 23.7307 18.0945 10.6431
1 23.737 18.8804 9.85369
1 22.8992 18.0865 9.8543
1 24.5244 18.8882 10.6431
1 25.3181 18.0945 10.6431
1 25.3261 18.89 9.83348
1 24.5156 18.0929 9.84248
1 26.1118 18.8882 10.6431
1 26.9055 18.0945 10.6431
1 26.9046 18.9106 9.85311
1 26.103 18.0898 9.83944
1 27.6992 18.8882 10.6431
1 28.4929 18.0945 10.6431
1 28.4921 18.8837 9.84349
1 27.7034 18.1005 9.86145
1 29.2866 18.8882 10.6431
1 0.08031 18.0945 10.6431
1 0.0847409 18.8911 9.83329
1 29.2764 18.0946 9.86546
1 0.874011 18.8882 10.6431
1 1.66771 18.0945 10.6431
1 1.65437 18.8928 9.84817
1 0.838117 18.1053 9.85005
1 2.46141 18.8882 10.6431
1 3.25511 18.0945 10.6431
1 3.26083 18.8873 9.85377
1 2.47428 18.1173 9.84432
1 4.04881 18.8882 10.6431
1 4.84251 18.0945 10.6431
1 4.83419 18.8865 9.85541
1 4.06452 18.1138 9.85245
1 5.63621 18.8882 10.6431
1 6.42991 18.0945 10.6431
1 6.43014 18.8901 9.84915
1 5.6425 18.1019 9.83676
1 7.22361 18.8882 10.6431
1 8.01732 18.0945 10.6431
1 8.01408 18.8933 9.85823
1 7.22489 18.1143 9.84428
1 8.81102 18.8882 10.6431
1 9.60472 18.0945 10.6431
1 9.58227 18.8994 9.8668
1 8.8092 18.0863 9.85297
1 10.3984 18.8882 10.6431
1 11.1921 18.0945 10.6431
1 11.1906 18.8884 9.87153
1 10.4108 18.1156 9.83738
1 11.9858 18.8882 10.6431
1 12.7795 18.0945 10.6431
1 12.7857 18.8699 9.85677
1 11.9954 18.1062 9.84133
1 13.5732 18.8882 10.6431
1 14.3669 18.0945 10.6431
1 14.301 18.8977 9.79376
1 13.5273 18.0903 9.84483
1 15 17.3008 10.6431
1 15.7937 16.5071 10.6431
1 15.8401 17.3332 9.85642
1 15.0726 16.5158 9.82145
1 16.5874 17.3008 10.6431
1 17.3811 16.5071 10.6431
1 17.3738 17.2893 9.85925
1 16.6025 16.5099 9.84508
1 18.1748 17.3008 10.6431
1 18.9685 16.5071 10.6431
1 18.9557 17.2762 9.85846
1 18.1583 16.4861 9.86083
1 19.7622 17.3008 10.6431
1 20.5559 16.5071 10.6431
1 20.5369 17.3152 9.85528
1 19.7524 16.4978 9.85363
1 21.3496 17.3008 10.6431
1 22.1433 16.5071 10.6431
1 22.1399 17.2952 9.84621
1 21.3554 16.5286 9.88073
1 22.937 17.3008 10.6431
1 23.7307 16.5071 10.6431
1 23.7238 17.2776 9.85111
1 22.923 16.4981 9.84927
1 24.5244 17.3008 10.6431
1 25.3181 16.5071 10.6431
1 25.3204 17.3045 9.86817
1 24.5247 16.5216 9.82952
1 26.1118 17.3008 10.6431
1 26.9055 16.5071 10.6431
1 26.9002 17.2832 9.84605
1 26.1064 16.4871 9.8555
1 27.6992 17.3008 10.6431
1 28.4929 16.5071 10.6431
1 28.5 17.314 9.85388
1 27.7193 16.5162 9.85564
1 29.2866 17.3008 10.6431
1 0.08031 16.5071 10.6431
1 0.0775194 17.295 9.85202
1 29.273 16.5036 9.8604
1 0.874011 17.3008 10.6431
1 1.66771 16.5071 10.6431
1 1.70318 17.341 9.86706
1 0.865981 16.5342 9.86025
1 2.46141 17.3008 10.6431
1 3.25511 16.5071 10.6431
1 3.23944 17.3097 9.85564
1 2.47085 16.4909 9.85334
1 4.04881 17.3008 10.6431
1 4.84251 16.5071 10.6431
1 4.82356 17.3039 9.85679
1 4.04702 16.5118 9.85491
1 5.63621 17.3008 10.6431
1 6.42991 16.5071 10.6431
1 6.46522 17.3302 9.84593
1 5.62546 16.5182 9.8532
1 7.22361 17.3008 10.6431
1 8.01732 16.5071 10.6431
1 7.99836 17.3202 9.83132
1 7.22016 16.5085 9.85142
1 8.81102 17.3008 10.6431
1 9.60472 16.5071 10.6431
1 9.60115 17.3036 9.86061
1 8.80785 16.5258 9.85928
1 10.3984 17.3008 10.6431
1 11.1921 16.5071 10.6431
1 11.1957 17.3184 9.85726
1 10.3898 16.5354 9.84909
1 11.9858 17.3008 10.6431
1 12.7795 16.5071 10.6431
1 12.7638 17.3005 9.8318
1 11.959 16.5234 9.82384
1 13.5732 17.3008 10.6431
1 14.3669 16.5071 10.6431
1 14.2804 17.3002 9.81832
1 13.5464 16.5028 9.85869
1 15 15.7134 10.6431
1 15.7937 14.9197 10.6431
1 15.8178 15.6895 9.83928
1 15.0525 14.9207 9.81941
1 16.5874 15.7134 10.6431
1 17.3811 14.9197 10.6431
1 17.3912 15.7262 9.85226
1 16.6152 14.9532 9.87042
1 18.1748 15.7134 10.6431
1 18.9685 14.9197 10.6431
1 19.0006 15.714 9.85191
1 18.1849 14.9233 9.85711
1 19.7622 15.7134 10.6431
1 20.5559 14.9197 10.6431
1 20.5632 15.7253 9.87025
1 19.7583 14.9091 9.89811
1 21.3496 15.7134 10.6431
1 22.1433 14.9197 10.6431
1 22.1473 15.7018 9.85143
1 21.3464 14.9096 9.87377
1 22.937 15.7134 10.6431
1 23.7307 14.9197 10.6431
1 23.7398 15.7055 9.84888
1 22.9414 14.9028 9.86091
1 24.5244 15.7134 10.6431
1 25.3181 14.9197 10.6431
1 25.2993 15.698 9.86328
1 24.5101 14.9171 9.8604
1 26.1118 15.7134 10.6431
1 26.9055 14.9197 10.6431
1 26.8937 15.7124 9.84664
1 26.1315 14.9025 9.84919
1 27.6992 15.7134 10.6431
1 28.4929 14.9197 10.6431
1 28.5205 15.6921 9.84205
1 27.7162 14.9126 9.86517
1 29.2866 15.7134 10.6431
1 0.08031 14.9197 10.6431
1 0.0951987 15.7222 9.84699
1 29.2959 14.9185 9.83789
1 0.874011 15.7134 10.6431
1 1.66771 14.9197 10.6431
1 1.66121 15.7473 9.85021
1 0.882237 14.9403 9.84437
1 2.46141 15.7134 10.6431
1 3.25511 14.9197 10.6431
1 3.278 15.7005 9.87323
1 2.45594 14.9335 9.8484
1 4.04881 15.7134 10.6431
1 4.84251 14.9197 10.6431
1 4.8457 15.7153 9.84517
1 4.05676 14.9099 9.86447
1 5.63621 15.7134 10.6431
1 6.42991 14.9197 10.6431
1 6.42406 15.704 9.84104
1 5.62433 14.901 9.83985
1 7.22361 15.7134 10.6431
1 8.01732 14.9197 10.6431
1 8.00027 15.7306 9.84549
1 7.2298 14.9004 9.85204
1 8.81102 15.7134 10.6431
1 9.60472 14.9197 10.6431
1 9.58705 15.7147 9.81157
1 8.81299 14.912 9.82737
1 10.3984 15.7134 10.6431
1 11.1921 14.9197 10.6431
1 11.1619 15.7233 9.85887
1 10.42 14.9119 9.83725
1 11.9858 15.7134 10.6431
1 12.7795 14.9197 10.6431
1 12.7475 15.7204 9.85929
1 11.9766 14.9283 9.86093
1 13.5732 15.7134 10.6431
1 14.3669 14.9197 10.6431
1 14.2764 15.704 9.81248
1 13.5568 14.8896 9.8439
1 15 14.126 10.6431
1 15.7937 13.3323 10.6431
1 15.8327 14.1198 9.81612
1 15.0899 13.3396 9.79415
1 16.5874 14.126 10.6431
1 17.3811 13.3323 10.6431
1 17.3598 14.1339 9.85727
1 16.5988 13.3281 9.86468
1 18.1748 14.126 10.6431
1 18.9685 13.3323 10.6431
1 18.9595 14.128 9.85789
1 18.1551 13.344 9.84821
1 19.7622 14.126 10.6431
1 20.5559 13.3323 10.6431
1 20.5486 14.1097 9.86568
1 19.75 13.3129 9.85476
1 21.3496 14.126 10.6431
1 22.1433 13.3323 10.6431
1 22.1449 14.1508 9.85781
1 21.3629 13.3341 9.87632
1 22.937 14.126 10.6431
1 23.7307 13.3323 10.6431
1 23.747 14.1367 9.86
1 22.9429 13.3469 9.84119
1 24.5244 14.126 10.6431
1 25.3181 13.3323 10.6431
1 25.3392 14.1303 9.85977
1 24.5222 13.3536 9.83595
1 26.1118 14.126 10.6431
1 26.9055 13.3323 10.6431
1 26.9212 14.1192 9.83394
1 26.0812 13.3204 9.84582
1 27.6992 14.126 10.6431
1 28.4929 13.3323 10.6431
1 28.4946 14.1187 9.86084
1 27.7099 13.3111 9.83601
1 29.2866 14.126 10.6431
1 0.08031 13.3323 10.6431
1 0.0738372 14.139 9.84733
1 29.2919 13.3449 9.84112
1 0.874011 14.126 10.6431
1 1.66771 13.3323 10.6431
1 1.67374 14.1255 9.83679
1 0.882083 13.3416 9.86003
1 2.46141 14.126 10.6431
1 3.25511 13.3323 10.6431
1 3.24725 14.1305 9.85591
1 2.46553 13.3491 9.85861
1 4.04881 14.126 10.6431
1 4.84251 13.3323 10.6431
1 4.82579 14.1169 9.85915
1 4.04071 13.3598 9.84357
1 5.63621 14.126 10.6431
1 6.42991 13.3323 10.6431
1 6.43292 14.1117 9.84082
1 5.63423 13.338 9.84904
1 7.22361 14.126 10.6431
1 8.01732 13.3323 10.6431
1 8.01001 14.1057 9.83557
1 7.20775 13.3389 9.83633
1 8.81102 14.126 10.6431
1 9.60472 13.3323 10.6431
1 9.60377 14.1155 9.85179
1 8.80599 13.3263 9.85472
1 10.3984 14.126 10.6431
1 11.1921 13.3323 10.6431
1 11.1991 14.1179 9.8271
1 10.4086 13.3316 9.85441
1 11.9858 14.126 10.6431
1 12.7795 13.3323 10.6431
1 12.7486 14.1264 9.8385
1 11.9673 13.3171 9.86232
1 13.5732 14.126 10.6431
1 14.3669 13.3323 10.6431
1 14.2882 14.1326 9.82864
1 13.5424 13.3402 9.8501
1 15 12.5386 10.6431
1 15.7937 11.7449 10.6431
1 15.8245 12.5346 9.84708
1 15.049 11.7273 9.81998
1 16.5874 12.5386 10.6431
1 17.3811 11.7449 10.6431
1 17.4095 12.5345 9.84131
1 16.5813 11.7237 9.85569
1 18.1748 12.5386 10.6431
1 18.9685 11.7449 10.6431
1 18.9769 12.5316 9.85039
1 18.1742 11.7579 9.85328
1 19.7622 12.5386 10.6431
1 20.5559 11.7449 10.6431
1 20.5675 12.5329 9.83792
1 19.7603 11.74 9.85436
1 21.3496 12.5386 10.6431
1 22.1433 11.7449 10.6431
1 22.1581 12.5072 9.8579
1 21.3571 11.7249 9.85743
1 22.937 12.5386 10.6431
1 23.7307 11.7449 10.6431
1 23.7226 12.5435 9.85108
1 22.9545 11.7508 9.83695
1 24.5244 12.5386 10.6431
1 25.3181 11.7449 10.6431
1 25.2843 12.5473 9.85425
1 24.5134 11.7693 9.84681
1 26.1118 12.5386 10.6431
1 26.9055 11.7449 10.6431
1 26.8914 12.5494 9.83713
1 26.0897 11.7415 9.84154
1 27.6992 12.5386 10.6431
1 28.4929 11.7449 10.6431
1 28.4841 12.531 9.83558
1 27.6911 11.7624 9.85118
1 29.2866 12.5386 10.6431
1 0.08031 11.7449 10.6431
1 0.0823102 12.547 9.85476
1 29.2715 11.7729 9.86303
1 0.874011 12.5386 10.6431
1 1.66771 11.7449 10.6431
1 1.66828 12.5288 9.85325
1 0.851555 11.7562 9.85508
1 2.46141 12.5386 10.6431
1 3.25511 11.7449 10.6431
1 3.27063 12.5392 9.83047
1 2.44676 11.7533 9.83771
1 4.04881 12.5386 10.6431
1 4.84251 11.7449 10.6431
1 4.8287 12.5406 9.84787
1 4.04121 11.7346 9.86504
1 5.63621 12.5386 10.6431
1 6.42991 11.7449 10.6431
1 6.41504 12.526 9.85544
1 5.63062 11.7375 9.85479
1 7.22361 12.5386 10.6431
1 8.01732 11.7449 10.6431
1 8.0339 12.5295 9.84826
1 7.21336 11.7495 9.84415
1 8.81102 12.5386 10.6431
1 9.60472 11.7449 10.6431
1 9.62066 12.5396 9.84202
1 8.81371 11.7363 9.84407
1 10.3984 12.5386 10.6431
1 11.1921 11.7449 10.6431
1 11.1791 12.5274 9.84247
1 10.3988 11.7423 9.85784
1 11.9858 12.5386 10.6431
1 12.7795 11.7449 10.6431
1 12.7848 12.5226 9.87729
1 11.9658 11.7467 9.87125
1 13.5732 12.5386 10.6431
1 14.3669 11.7449 10.6431
1 14.2965 12.5452 9.80979
1 13.5595 11.7279 9.84684
1 15 10.9512 10.6431
1 15.7937 10.1575 10.6431
1 15.8075 10.9418 9.82981
1 15.0486 10.1349 9.82458
1 16.5874 10.9512 10.6431
1 17.3811 10.1575 10.6431
1 17.408 10.9613 9.85525
1 16.6172 10.1426 9.82617
1 18.1748 10.9512 10.6431
1 18.9685 10.1575 10.6431
1 18.9511 10.9511 9.86196
1 18.1897 10.1634 9.83621
1 19.7622 10.9512 10.6431
1 20.5559 10.1575 10.6431
1 20.5647 10.9528 9.85814
1 19.774 10.1659 9.86142
1 21.3496 10.9512 10.6431
1 22.1433 10.1575 10.6431
1 22.163 10.9552 9.85099
1 21.3579 10.1715 9.84156
1 22.937 10.9512 10.6431
1 23.7307 10.1575 10.6431
1 23.7433 10.9611 9.83644
1 22.9417 10.1753 9.83627
1 24.5244 10.9512 10.6431
1 25.3181 10.1575 10.6431
1 25.3246 10.956 9.87271
1 24.5339 10.1778 9.86663
1 26.1118 10.9512 10.6431
1 26.9055 10.1575 10.6431
1 26.913 10.9691 9.88644
1 26.1174 10.1695 9.8389
1 27.6992 10.9512 10.6431
1 28.4929 10.1575 10.6431
1 28.4925 10.9454 9.84482
1 27.7013 10.1587 9.8418
1 29.2866 10.9512 10.6431
1 0.08031 10.1575 10.6431
1 0.0761194 10.9401 9.86168
1 29.2911 10.1378 9.85885
1 0.874011 10.9512 10.6431
1 1.66771 10.1575 10.6431
1 1.66947 10.9222 9.85208
1 0.851108 10.1528 9.84499
1 2.46141 10.9512 10.6431
1 3.25511 10.1575 10.6431
1 3.23372 10.9362 9.85605
1 2.46078 10.1379 9.83812
1 4.04881 10.9512 10.6431
1 4.84251 10.1575 10.6431
1 4.83773 10.9166 9.86281
1 4.01987 10.1492 9.84822
1 5.63621 10.9512 10.6431
1 6.42991 10.1575 10.6431
1 6.43932 10.9433 9.86646
1 5.65374 10.1588 9.87208
1 7.22361 10.9512 10.6431
1 8.01732 10.1575 10.6431
1 8.02706 10.9271 9.85811
1 7.21213 10.1511 9.84984
1 8.81102 10.9512 10.6431
1 9.60472 10.1575 10.6431
1 9.58691 10.9418 9.84042
1 8.8107 10.1432 9.84119
1 10.3984 10.9512 10.6431
1 11.1921 10.1575 10.6431
1 11.1982 10.9691 9.86083
1 10.4054 10.1732 9.85229
1 11.9858 10.9512 10.6431
1 12.7795 10.1575 10.6431
1 12.7606 10.9363 9.83967
1 11.9761 10.1326 9.83361
1 13.5732 10.9512 10.6431
1 14.3669 10.1575 10.6431
1 14.297 10.94 9.84293
1 13.5222 10.1607 9.83091
1 15 9.36379 10.6431
1 15.7937 8.57009 10.6431
1 15.8426 9.33272 9.82449
1 15.0688 8.58411 9.81406
1 16.5874 9.36379 10.6431
1 17.3811 8.57009 10.6431
1 17.3848 9.36097 9.83356
1 16.6064 8.5675 9.87796
1 18.1748 9.36379 10.6431
1 18.9685 8.57009 10.6431
1 19.0027 9.36508 9.86325
1 18.2031 8.58133 9.83012
1 19.7622 9.36379 10.6431
1 20.5559 8.57009 10.6431
1 20.5818 9.36391 9.84793
1 19.7853 8.55879 9.85418
1 21.3496 9.36379 10.6431
1 22.1433 8.57009 10.6431
1 22.1496 9.3827 9.84562
1 21.3664 8.57499 9.85907
1 22.937 9.36379 10.6431
1 23.7307 8.57009 10.6431
1 23.74 9.37725 9.84827
1 22.9399 8.57565 9.87316
1 24.5244 9.36379 10.6431
1 25.3181 8.57009 10.6431
1 25.3174 9.37528 9.86097
1 24.5286 8.57197 9.8533
1 26.1118 9.36379 10.6431
1 26.9055 8.57009 10.6431
1 26.9064 9.36737 9.83353
1 26.1145 8.55468 9.84908
1 27.6992 9.36379 10.6431
1 28.4929 8.57009 10.6431
1 28.4877 9.37882 9.85469
1 27.7085 8.58786 9.85157
1 29.2866 9.36379 10.6431
1 0.08031 8.57009 10.6431
1 0.0837741 9.3363 9.8627
1 29.3066 8.57909 9.87063
1 0.874011 9.36379 10.6431
1 1.66771 8.57009 10.6431
1 1.66044 9.36581 9.82298
1 0.883245 8.56289 9.83312
1 2.46141 9.36379 10.6431
1 3.25511 8.57009 10.6431
1 3.24437 9.35462 9.80863
1 2.4522 8.5471 9.85337
1 4.04881 9.36379 10.6431
1 4.84251 8.57009 10.6431
1 4.84076 9.37441 9.86102
1 4.04871 8.59068 9.83999
1 5.63621 9.36379 10.6431
1 6.42991 8.57009 10.6431
1 6.42541 9.37599 9.87195
1 5.65639 8.55404 9.86508
1 7.22361 9.36379 10.6431
1 8.01732 8.57009 10.6431
1 8.02038 9.34424 9.84953
1 7.23946 8.5667 9.84447
1 8.81102 9.36379 10.6431
1 9.60472 8.57009 10.6431
1 9.59676 9.34993 9.85931
1 8.80491 8.5624 9.84067
1 10.3984 9.36379 10.6431
1 11.1921 8.57009 10.6431
1 11.2057 9.34417 9.86564
1 10.3807 8.57871 9.83957
1 11.9858 9.36379 10.6431
1 12.7795 8.57009 10.6431
1 12.7763 9.34368 9.84256
1 11.9673 8.58828 9.85942
1 13.5732 9.36379 10.6431
1 14.3669 8.57009 10.6431
1 14.2927 9.35357 9.84544
1 13.5468 8.55488 9.86282
1 15 7.77639 10.6431
1 15.7937 6.98268 10.6431
1 15.8143 7.77215 9.80828
1 15.0656 6.97681 9.83185
1 16.5874 7.77639 10.6431
1 17.3811 6.98268 10.6431
1 17.3977 7.7825 9.82798
1 16.6195 7.00279 9.86979
1 18.1748 7.77639 10.6431
1 18.9685 6.98268 10.6431
1 18.9858 7.78095 9.84744
1 18.1795 6.98843 9.85861
1 19.7622 7.77639 10.6431
1 20.5559 6.98268 10.6431
1 20.5738 7.78191 9.86421
1 19.7784 6.99408 9.85255
1 21.3496 7.77639 10.6431
1 22.1433 6.98268 10.6431
1 22.1344 7.76978 9.86462
1 21.3617 7.0108 9.85246
1 22.937 7.77639 10.6431
1 23.7307 6.98268 10.6431
1 23.7304 7.79229 9.85288
1 22.9392 6.96356 9.85451
1 24.5244 7.77639 10.6431
1 25.3181 6.98268 10.6431
1 25.3377 7.78372 9.84478
1 24.5541 6.98897 9.86496
1 26.1118 7.77639 10.6431
1 26.9055 6.98268 10.6431
1 26.9016 7.79233 9.86472
1 26.1146 6.96743 9.84015
1 27.6992 7.77639 10.6431
1 28.4929 6.98268 10.6431
1 28.4865 7.78025 9.83991
1 27.6855 6.98894 9.84447
1 29.2866 7.77639 10.6431
1 0.08031 6.98268 10.6431
1 0.0618094 7.78188 9.8428
1 29.2972 6.98727 9.83733
1 0.874011 7.77639 10.6431
1 1.66771 6.98268 10.6431
1 1.66372 7.76674 9.8282
1 0.890871 7.00097 9.872
1 2.46141 7.77639 10.6431
1 3.25511 6.98268 10.6431
1 3.25451 7.76672 9.86193
1 2.46483 7.01154 9.83884
1 4.04881 7.77639 10.6431
1 4.84251 6.98268 10.6431
1 4.84753 7.77258 9.84359
1 4.05141 6.99254 9.82421
1 5.63621 7.77639 10.6431
1 6.42991 6.98268 10.6431
1 6.42328 7.76501 9.86869
1 5.64908 6.98162 9.8238
1 7.22361 7.77639 10.6431
1 8.01732 6.98268 10.6431
1 8.02617 7.76355 9.84573
1 7.21178 6.98115 9.84547
1 8.81102 7.77639 10.6431
1 9.60472 6.98268 10.6431
1 9.60908 7.78326 9.8428
1 8.81992 6.99642 9.85127
1 10.3984 7.77639 10.6431
1 11.1921 6.98268 10.6431
1 11.1815 7.78561 9.85679
1 10.3826 6.98372 9.84588
1 11.9858 7.77639 10.6431
1 12.7795 6.98268 10.6431
1 12.7493 7.76594 9.85901
1 11.9851 6.9817 9.83762
1 13.5732 7.77639 10.6431
1 14.3669 6.98268 10.6431
1 14.2739 7.77776 9.8117
1 13.5168 6.95221 9.82431
1 15 6.18898 10.6431
1 15.7937 5.39528 10.6431
1 15.8187 6.20139 9.82483
1 15.0809 5.43401 9.8441
1 16.5874 6.18898 10.6431
1 17.3811 5.39528 10.6431
1 17.3848 6.19196 9.85985
1 16.5923 5.37948 9.8583
1 18.1748 6.18898 10.6431
1 18.9685 5.39528 10.6431
1 18.9798 6.19752 9.85094
1 18.1844 5.39521 9.85019
1 19.7622 6.18898 10.6431
1 20.5559 5.39528 10.6431
1 20.5763 6.19474 9.83576
1 19.7749 5.39398 9.85068
1 21.3496 6.18898 10.6431
1 22.1433 5.39528 10.6431
1 22.1434 6.19555 9.84012
1 21.3792 5.40462 9.86498