9376
Atoms. Timestep: 4000000
1 15 3.55271e-15 10.7257
1 15.7937 29.2063 10.7257
1 15.8445 29.9224 9.89215
1 15.0658 29.1689 9.89258
1 16.5874 3.55271e-15 10.7257
1 17.3811 29.2063 10.7257
1 17.3629 29.9041 9.90357
1 16.6116 29.1693 9.92085
1 18.1748 3.55271e-15 10.7257
1 18.9685 29.2063 10.7257
1 18.9807 29.9324 9.89255
1 18.1962 29.1476 9.92862
1 19.7622 3.55271e-15 10.7257
1 20.5559 29.2063 10.7257
1 20.5838 29.9225 9.881
1 19.7674 29.1743 9.91895
1 21.3496 3.55271e-15 10.7257
1 22.1433 29.2063 10.7257
1 22.1407 29.9315 9.91525
1 21.3419 29.1435 9.90523
1 22.937 3.55271e-15 10.7257
1 23.7307 29.2063 10.7257
1 23.7245 29.954 9.90127
1 22.9395 29.164 9.93892
1 24.5244 3.55271e-15 10.7257
1 25.3181 29.2063 10.7257
1 25.3251 29.9321 9.89773
1 24.5245 29.1884 9.90972
1 26.1118 3.55271e-15 10.7257
1 26.9055 29.2063 10.7257
1 26.9125 29.93 9.90293
1 26.0991 29.1756 9.95848
1 27.6992 3.55271e-15 10.7257
1 28.4929 29.2063 10.7257
1 28.5064 29.9447 9.86879
1 27.6914 29.1701 9.9284
1 29.2866 3.55271e-15 10.7257
1 0.08031 29.2063 10.7257
1 0.0948901 29.9561 9.92153
1 29.2908 29.1815 9.89951
1 0.874011 3.55271e-15 10.7257
1 1.66771 29.2063 10.7257
1 1.68894 29.927 9.91015
1 0.878039 29.1842 9.93975
1 2.46141 3.55271e-15 10.7257
1 3.25511 29.2063 10.7257
1 3.27105 29.9169 9.90485
1 2.48077 29.1626 9.92946
1 4.04881 3.55271e-15 10.7257
1 4.84251 29.2063 10.7257
1 4.84378 29.9331 9.87902
1 4.06251 29.1779 9.92405
1 5.63621 3.55271e-15 10.7257
1 6.42991 29.2063 10.7257
1 6.4115 29.944 9.90018
1 5.65878 29.184 9.90823
1 7.22361 3.55271e-15 10.7257
1 8.01732 29.2063 10.7257
1 8.01089 29.9337 9.90159
1 7.20668 29.1515 9.92694
1 8.81102 3.55271e-15 10.7257
1 9.60472 29.2063 10.7257
1 9.61404 29.9112 9.87238
1 8.80636 29.182 9.9269
1 10.3984 3.55271e-15 10.7257
1 11.1921 29.2063 10.7257
1 11.1942 29.9524 9.89986
1 10.398 29.196 9.92645
1 11.9858 3.55271e-15 10.7257
1 12.7795 29.2063 10.7257
1 12.7606 29.942 9.89903
1 11.962 29.1798 9.89768
1 13.5732 3.55271e-15 10.7257
1 14.3669 29.2063 10.7257
1 14.2887 29.9264 9.88034
1 13.5253 29.1775 9.90657
1 15 28.4126 10.7257
1 15.7937 27.6189 10.7257
1 15.8252 28.4032 9.93318
1 15.097 27.6113 9.90042
1 16.5874 28.4126 10.7257
1 17.3811 27.6189 10.7257
1 17.3951 28.4103 9.92757
1 16.5961 27.6192 9.92744
1 18.1748 28.4126 10.7257
1 18.9685 27.6189 10.7257
1 18.9803 28.3964 9.9234
1 18.1797 27.5867 9.93108
1 19.7622 28.4126 10.7257
1 20.5559 27.6189 10.7257
1 20.5306 28.3657 9.91058
1 19.7547 27.5639 9.92333
1 21.3496 28.4126 10.7257
1 22.1433 27.6189 10.7257
1 22.1423 28.3948 9.94973
1 21.3324 27.5918 9.92193
1 22.937 28.4126 10.7257
1 23.7307 27.6189 10.7257
1 23.7379 28.3838 9.9423
1 22.9385 27.6379 9.94493
1 24.5244 28.4126 10.7257
1 25.3181 27.6189 10.7257
1 25.3224 28.4007 9.94335
1 24.5442 27.5782 9.93855
1 26.1118 28.4126 10.7257
1 26.9055 27.6189 10.7257
1 26.8859 28.3874 9.91815
1 26.1151 27.5877 9.93168
1 27.6992 28.4126 10.7257
1 28.4929 27.6189 10.7257
1 28.5139 28.409 9.91686
1 27.7107 27.6152 9.94429
1 29.2866 28.4126 10.7257
1 0.08031 27.6189 10.7257
1 0.0822082 28.4209 9.9176
1 29.3158 27.632 9.95038
1 0.874011 28.4126 10.7257
1 1.66771 27.6189 10.7257
1 1.66007 28.4145 9.94787
1 0.887939 27.5953 9.94395
1 2.46141 28.4126 10.7257
1 3.25511 27.6189 10.7257
1 3.2872 28.3859 9.92431
1 2.43764 27.6256 9.91835
1 4.04881 28.4126 10.7257
1 4.84251 27.6189 10.7257
1 4.84191 28.4006 9.94822
1 4.06946 27.5727 9.9399
1 5.63621 28.4126 10.7257
1 6.42991 27.6189 10.7257
1 6.42746 28.3815 9.92822
1 5.61531 27.6093 9.89157
1 7.22361 28.4126 10.7257
1 8.01732 27.6189 10.7257
1 8.00897 28.3734 9.91468
1 7.23978 27.5915 9.91334
1 8.81102 28.4126 10.7257
1 9.60472 27.6189 10.7257
1 9.61342 28.4318 9.91717
1 8.81141 27.604 9.91575
1 10.3984 28.4126 10.7257
1 11.1921 27.6189 10.7257
1 11.1813 28.3965 9.92378
1 10.3885 27.6434 9.93125
1 11.9858 28.4126 10.7257
1 12.7795 27.6189 10.7257
1 12.7582 28.3984 9.92019
1 11.9629 27.6101 9.93569
1 13.5732 28.4126 10.7257
1 14.3669 27.6189 10.7257
1 14.292 28.397 9.88851
1 13.5241 27.6179 9.91802
1 15 26.8252 10.7257
1 15.7937 26.0315 10.7257
1 15.8178 26.8149 9.8925
1 15.0796 26.0309 9.88315
1 16.5874 26.8252 10.7257
1 17.3811 26.0315 10.7257
1 17.3828 26.832 9.95221
1 16.6046 26.0048 9.94342
1 18.1748 26.8252 10.7257
1 18.9685 26.0315 10.7257
1 18.981 26.8036 9.92356
1 18.1647 26.0219 9.90902
1 19.7622 26.8252 10.7257
1 20.5559 26.0315 10.7257
1 20.5786 26.7896 9.90385
1 19.7825 26.0228 9.93107
1 21.3496 26.8252 10.7257
1 22.1433 26.0315 10.7257
1 22.1261 26.8158 9.91828
1 21.3656 26.009 9.94249
1 22.937 26.8252 10.7257
1 23.7307 26.0315 10.7257
1 23.7186 26.8298 9.93473
1 22.9345 26.015 9.91338
1 24.5244 26.8252 10.7257
1 25.3181 26.0315 10.7257
1 25.3202 26.8226 9.94867
1 24.5347 26.0395 9.93548
1 26.1118 26.8252 10.7257
1 26.9055 26.0315 10.7257
1 26.923 26.8174 9.9249
1 26.1332 26.0424 9.92254
1 27.6992 26.8252 10.7257
1 28.4929 26.0315 10.7257
1 28.4851 26.8381 9.9177
1 27.6804 26.0456 9.92928
1 29.2866 26.8252 10.7257
1 0.08031 26.0315 10.7257
1 0.0974 26.8212 9.93648
1 29.2798 26.0238 9.93301
1 0.874011 26.8252 10.7257
1 1.66771 26.0315 10.7257
1 1.67248 26.8302 9.92548
1 0.876036 26.0319 9.93809
1 2.46141 26.8252 10.7257
1 3.25511 26.0315 10.7257
1 3.25493 26.8269 9.92189
1 2.45606 26.04 9.91048
1 4.04881 26.8252 10.7257
1 4.84251 26.0315 10.7257
1 4.84144 26.7866 9.93309
1 4.03968 26.017 9.93452
1 5.63621 26.8252 10.7257
1 6.42991 26.0315 10.7257
1 6.43441 26.8187 9.91049
1 5.6626 26.0334 9.92031
1 7.22361 26.8252 10.7257
1 8.01732 26.0315 10.7257
1 8.03743 26.8263 9.93473
1 7.23966 26.0537 9.95168
1 8.81102 26.8252 10.7257
1 9.60472 26.0315 10.7257
1 9.61678 26.8412 9.93926
1 8.79956 26.0152 9.94801
1 10.3984 26.8252 10.7257
1 11.1921 26.0315 10.7257
1 11.1871 26.8257 9.94738
1 10.3799 26.0348 9.94482
1 11.9858 26.8252 10.7257
1 12.7795 26.0315 10.7257
1 12.7478 26.8146 9.92774
1 11.9649 26.0018 9.91398
1 13.5732 26.8252 10.7257
1 14.3669 26.0315 10.7257
1 14.3116 26.8286 9.90013
1 13.5502 26.0325 9.90835
1 15 25.2378 10.7257
1 15.7937 24.4441 10.7257
1 15.8313 25.2422 9.91816
1 15.0601 24.4525 9.88603
1 16.5874 25.2378 10.7257
1 17.3811 24.4441 10.7257
1 17.3741 25.2354 9.90962
1 16.6245 24.4499 9.94126
1 18.1748 25.2378 10.7257
1 18.9685 24.4441 10.7257
1 18.9965 25.223 9.93453
1 18.1833 24.4538 9.91294
1 19.7622 25.2378 10.7257
1 20.5559 24.4441 10.7257
1 20.5546 25.2411 9.94269
1 19.7715 24.4502 9.95284
1 21.3496 25.2378 10.7257
1 22.1433 24.4441 10.7257
1 22.1811 25.2336 9.9397
1 21.3759 24.4396 9.93524
1 22.937 25.2378 10.7257
1 23.7307 24.4441 10.7257
1 23.7263 25.2383 9.92049
1 22.9417 24.424 9.94259
1 24.5244 25.2378 10.7257
1 25.3181 24.4441 10.7257
1 25.3271 25.2421 9.92886
1 24.5155 24.4436 9.91423
1 26.1118 25.2378 10.7257
1 26.9055 24.4441 10.7257
1 26.8783 25.2316 9.92991
1 26.0979 24.4074 9.93746
1 27.6992 25.2378 10.7257
1 28.4929 24.4441 10.7257
1 28.5066 25.2639 9.91979
1 27.7076 24.436 9.93482
1 29.2866 25.2378 10.7257
1 0.08031 24.4441 10.7257
1 0.0818962 25.2299 9.95067
1 29.3037 24.4472 9.9484
1 0.874011 25.2378 10.7257
1 1.66771 24.4441 10.7257
1 1.67333 25.2445 9.92207
1 0.853678 24.4292 9.89622
1 2.46141 25.2378 10.7257
1 3.25511 24.4441 10.7257
1 3.25331 25.2249 9.92665
1 2.44365 24.4437 9.92711
1 4.04881 25.2378 10.7257
1 4.84251 24.4441 10.7257
1 4.85237 25.2149 9.93681
1 4.05319 24.418 9.93353
1 5.63621 25.2378 10.7257
1 6.42991 24.4441 10.7257
1 6.4481 25.2542 9.92375
1 5.65487 24.4283 9.90342
1 7.22361 25.2378 10.7257
1 8.01732 24.4441 10.7257
1 8.01866 25.2134 9.96017
1 7.20948 24.4597 9.94285
1 8.81102 25.2378 10.7257
1 9.60472 24.4441 10.7257
1 9.61961 25.2299 9.96473
1 8.81264 24.4209 9.94175
1 10.3984 25.2378 10.7257
1 11.1921 24.4441 10.7257
1 11.1933 25.2581 9.95425
1 10.3809 24.4279 9.94452
1 11.9858 25.2378 10.7257
1 12.7795 24.4441 10.7257
1 12.7645 25.2445 9.93952
1 11.9722 24.4428 9.92133
1 13.5732 25.2378 10.7257
1 14.3669 24.4441 10.7257
1 14.2872 25.2191 9.88823
1 13.5484 24.4355 9.90307
1 15 23.6504 10.7257
1 15.7937 22.8567 10.7257
1 15.8089 23.6569 9.92149
1 15.0614 22.842 9.91501
1 16.5874 23.6504 10.7257
1 17.3811 22.8567 10.7257
1 17.409 23.6339 9.93728
1 16.6334 22.8493 9.93859
1 18.1748 23.6504 10.7257
1 18.9685 22.8567 10.7257
1 18.9717 23.6771 9.91502
1 18.1953 22.8426 9.92056
1 19.7622 23.6504 10.7257
1 20.5559 22.8567 10.7257
1 20.5608 23.6237 9.92971
1 19.7683 22.8628 9.93264
1 21.3496 23.6504 10.7257
1 22.1433 22.8567 10.7257
1 22.1451 23.653 9.93059
1 21.3725 22.8425 9.94023
1 22.937 23.6504 10.7257
1 23.7307 22.8567 10.7257
1 23.7376 23.6476 9.93893
1 22.9132 22.8483 9.93764
1 24.5244 23.6504 10.7257
1 25.3181 22.8567 10.7257
1 25.3357 23.6198 9.91509
1 24.5199 22.8332 9.94227
1 26.1118 23.6504 10.7257
1 26.9055 22.8567 10.7257
1 26.8813 23.6665 9.89122
1 26.105 22.8308 9.93517
1 27.6992 23.6504 10.7257
1 28.4929 22.8567 10.7257
1 28.5261 23.6329 9.95226
1 27.6696 22.8889 9.93083
1 29.2866 23.6504 10.7257
1 0.08031 22.8567 10.7257
1 0.0894427 23.6491 9.95
1 29.2973 22.8207 9.93283
1 0.874011 23.6504 10.7257
1 1.66771 22.8567 10.7257
1 1.64459 23.6365 9.93458
1 0.884307 22.8325 9.91794
1 2.46141 23.6504 10.7257
1 3.25511 22.8567 10.7257
1 3.23483 23.6517 9.94533
1 2.45699 22.8299 9.93977
1 4.04881 23.6504 10.7257
1 4.84251 22.8567 10.7257
1 4.82806 23.6462 9.92536
1 4.00806 22.868 9.92898
1 5.63621 23.6504 10.7257
1 6.42991 22.8567 10.7257
1 6.42498 23.6357 9.92751
1 5.61936 22.8648 9.92955
1 7.22361 23.6504 10.7257
1 8.01732 22.8567 10.7257
1 7.98376 23.6563 9.92917
1 7.23246 22.8468 9.93143
1 8.81102 23.6504 10.7257
1 9.60472 22.8567 10.7257
1 9.61886 23.6268 9.91272
1 8.80673 22.8614 9.93854
1 10.3984 23.6504 10.7257
1 11.1921 22.8567 10.7257
1 11.1938 23.6482 9.94713
1 10.394 22.8441 9.93814
1 11.9858 23.6504 10.7257
1 12.7795 22.8567 10.7257
1 12.7626 23.6381 9.91999
1 11.9627 22.8711 9.92619
1 13.5732 23.6504 10.7257
1 14.3669 22.8567 10.7257
1 14.2932 23.6643 9.88367
1 13.5696 22.8395 9.92354
1 15 22.063 10.7257
1 15.7937 21.2693 10.7257
1 15.822 22.0731 9.94095
1 15.0806 21.2463 9.90785
1 16.5874 22.063 10.7257
1 17.3811 21.2693 10.7257
1 17.4021 22.0805 9.92518
1 16.6114 21.2674 9.91762
1 18.1748 22.063 10.7257
1 18.9685 21.2693 10.7257
1 18.9889 22.0387 9.94391
1 18.1757 21.2732 9.95226
1 19.7622 22.063 10.7257
1 20.5559 21.2693 10.7257
1 20.5381 22.0834 9.93055
1 19.7815 21.2696 9.94185
1 21.3496 22.063 10.7257
1 22.1433 21.2693 10.7257
1 22.1416 22.0642 9.93476
1 21.3498 21.2821 9.94276
1 22.937 22.063 10.7257
1 23.7307 21.2693 10.7257
1 23.7468 22.0798 9.94318
1 22.9166 21.2792 9.95944
1 24.5244 22.063 10.7257
1 25.3181 21.2693 10.7257
1 25.3241 22.0833 9.93054
1 24.5372 21.275 9.94876
1 26.1118 22.063 10.7257
1 26.9055 21.2693 10.7257
1 26.9167 22.0694 9.93222
1 26.1115 21.2505 9.90952
1 27.6992 22.063 10.7257
1 28.4929 21.2693 10.7257
1 28.4806 22.0437 9.92729
1 27.7063 21.2814 9.91195
1 29.2866 22.063 10.7257
1 0.08031 21.2693 10.7257
1 0.0648876 22.0564 9.95379
1 29.2879 21.2709 9.93404
1 0.874011 22.063 10.7257
1 1.66771 21.2693 10.7257
1 1.64453 22.0501 9.9321
1 0.879968 21.2713 9.92626
1 2.46141 22.063 10.7257
1 3.25511 21.2693 10.7257
1 3.24819 22.0886 9.92256
1 2.45912 21.2511 9.93067
1 4.04881 22.063 10.7257
1 4.84251 21.2693 10.7257
1 4.83205 22.0711 9.92604
1 4.03551 21.2653 9.93264
1 5.63621 22.063 10.7257
1 6.42991 21.2693 10.7257
1 6.42017 22.0733 9.91349
1 5.60094 21.2573 9.9211
1 7.22361 22.063 10.7257
1 8.01732 21.2693 10.7257
1 8.02392 22.0526 9.94611
1 7.20446 21.2774 9.91945
1 8.81102 22.063 10.7257
1 9.60472 21.2693 10.7257
1 9.587 22.0524 9.92598
1 8.78786 21.2703 9.93059
1 10.3984 22.063 10.7257
1 11.1921 21.2693 10.7257
1 11.1768 22.0897 9.95338
1 10.3826 21.2834 9.94253
1 11.9858 22.063 10.7257
1 12.7795 21.2693 10.7257
1 12.7553 22.0572 9.90942
1 11.9802 21.2719 9.93363
1 13.5732 22.063 10.7257
1 14.3669 21.2693 10.7257
1 14.3269 22.0517 9.89574
1 13.5356 21.2817 9.93685
1 15 20.4756 10.7257
1 15.7937 19.6819 10.7257
1 15.8257 20.4933 9.92716
1 15.0794 19.6871 9.89354
1 16.5874 20.4756 10.7257
1 17.3811 19.6819 10.7257
1 17.3977 20.4619 9.95603
1 16.5895 19.6841 9.92532
1 18.1748 20.4756 10.7257
1 18.9685 19.6819 10.7257
1 19.0097 20.4964 9.92408
1 18.1802 19.6615 9.95173
1 19.7622 20.4756 10.7257
1 20.5559 19.6819 10.7257
1 20.5462 20.4644 9.90185
1 19.744 19.6764 9.93383
1 21.3496 20.4756 10.7257
1 22.1433 19.6819 10.7257
1 22.1417 20.4736 9.9246
1 21.3417 19.6807 9.92901
1 22.937 20.4756 10.7257
1 23.7307 19.6819 10.7257
1 23.7099 20.4788 9.9333
1 22.9183 19.6837 9.93406
1 24.5244 20.4756 10.7257
1 25.3181 19.6819 10.7257
1 25.3184 20.4747 9.94018
1 24.5272 19.6985 9.93709
1 26.1118 20.4756 10.7257
1 26.9055 19.6819 10.7257
1 26.9235 20.4891 9.92121
1 26.091 19.6974 9.95761
1 27.6992 20.4756 10.7257
1 28.4929 19.6819 10.7257
1 28.4924 20.4803 9.94225
1 27.704 19.6615 9.95249
1 29.2866 20.4756 10.7257
1 0.08031 19.6819 10.7257
1 0.0752476 20.4885 9.923
1 29.2557 19.69 9.92975
1 0.874011 20.4756 10.7257
1 1.66771 19.6819 10.7257
1 1.66901 20.471 9.93326
1 0.878601 19.6809 9.95479
1 2.46141 20.4756 10.7257
1 3.25511 19.6819 10.7257
1 3.28003 20.4767 9.92671
1 2.47016 19.6898 9.91339
1 4.04881 20.4756 10.7257
1 4.84251 19.6819 10.7257
1 4.83627 20.4565 9.95496
1 4.0487 19.6454 9.90999
1 5.63621 20.4756 10.7257
1 6.42991 19.6819 10.7257
1 6.43278 20.494 9.94097
1 5.61472 19.6855 9.93231
1 7.22361 20.4756 10.7257
1 8.01732 19.6819 10.7257
1 8.04108 20.5062 9.92166
1 7.20923 19.6754 9.9165
1 8.81102 20.4756 10.7257
1 9.60472 19.6819 10.7257
1 9.60456 20.4921 9.94772
1 8.81133 19.6938 9.92894
1 10.3984 20.4756 10.7257
1 11.1921 19.6819 10.7257
1 11.1776 20.4714 9.92686
1 10.3804 19.6789 9.94039
1 11.9858 20.4756 10.7257
1 12.7795 19.6819 10.7257
1 12.7717 20.4472 9.95122
1 11.9818 19.6726 9.92948
1 13.5732 20.4756 10.7257
1 14.3669 19.6819 10.7257
1 14.3042 20.4693 9.89705
1 13.553 19.6882 9.9238
1 15 18.8882 10.7257
1 15.7937 18.0945 10.7257
1 15.8332 18.8864 9.90987
1 15.0656 18.1099 9.87571
1 16.5874 18.8882 10.7257
1 17.3811 18.0945 10.7257
1 17.4004 18.8914 9.94298
1 16.5756 18.1161 9.94258
1 18.1748 18.8882 10.7257
1 18.9685 18.0945 10.7257
1 18.9719 18.8986 9.94445
1 18.1741 18.0915 9.93213
1 19.7622 18.8882 10.7257
1 20.5559 18.0945 10.7257
1 20.5567 18.8963 9.93393
1 19.7643 18.1062 9.89873
1 21.3496 18.8882 10.7257
1 22.1433 18.0945 10.7257
1 22.1264 18.8941 9.92367
1 21.3741 18.0877 9.92675
1 22.937 18.8882 10.7257
1 23.7307 18.0945 10.7257
1 23.7317 18.8881 9.93123
1 22.9357 18.0942 9.94958
1 24.5244 18.8882 10.7257
1 25.3181 18.0945 10.7257
1 25.3003 18.9093 9.92409
1 24.5435 18.1145 9.93569
1 26.1118 18.8882 10.7257
1 26.9055 18.0945 10.7257
1 26.901 18.8968 9.93702
1 26.1012 18.0958 9.9192
1 27.6992 18.8882 10.7257
1 28.4929 18.0945 10.7257
1 28.4938 18.8828 9.91961
1 27.6995 18.0806 9.92967
1 29.2866 18.8882 10.7257
1 0.08031 18.0945 10.7257
1 0.0677339 18.9036 9.92326
1 29.2955 18.0718 9.93064
1 0.874011 18.8882 10.7257
1 1.66771 18.0945 10.7257
1 1.68076 18.8832 9.94314
1 0.856648 18.1027 9.92196
1 2.46141 18.8882 10.7257
1 3.25511 18.0945 10.7257
1 3.26138 18.8772 9.8932
1 2.4449 18.0957 9.90362
1 4.04881 18.8882 10.7257
1 4.84251 18.0945 10.7257
1 4.86717 18.8666 9.91759
1 4.05202 18.1018 9.93429
1 5.63621 18.8882 10.7257
1 6.42991 18.0945 10.7257
1 6.42241 18.8833 9.93085
1 5.66157 18.0787 9.93922
1 7.22361 18.8882 10.7257
1 8.01732 18.0945 10.7257
1 7.99011 18.8832 9.93481
1 7.2124 18.1014 9.93673
1 8.81102 18.8882 10.7257
1 9.60472 18.0945 10.7257
1 9.6006 18.8715 9.93813
1 8.78865 18.1056 9.93913
1 10.3984 18.8882 10.7257
1 11.1921 18.0945 10.7257
1 11.1882 18.932 9.91661
1 10.4091 18.1375 9.94451
1 11.9858 18.8882 10.7257
1 12.7795 18.0945 10.7257
1 12.7936 18.8897 9.93674
1 11.9617 18.1139 9.9494
1 13.5732 18.8882 10.7257
1 14.3669 18.0945 10.7257
1 14.286 18.9029 9.90026
1 13.5469 18.1004 9.90776
1 15 17.3008 10.7257
1 15.7937 16.5071 10.7257
1 15.8167 17.311 9.92092
1 15.0799 16.495 9.91048
1 16.5874 17.3008 10.7257
1 17.3811 16.5071 10.7257
1 17.3782 17.2963 9.93741
1 16.606 16.4787 9.92096
1 18.1748 17.3008 10.7257
1 18.9685 16.5071 10.7257
1 18.9954 17.3002 9.9434
1 18.2 16.5125 9.91615
1 19.7622 17.3008 10.7257
1 20.5559 16.5071 10.7257
1 20.5564 17.2988 9.92411
1 19.7732 16.4855 9.9188
1 21.3496 17.3008 10.7257
1 22.1433 16.5071 10.7257
1 22.1789 17.3082 9.92082
1 21.371 16.5163 9.93834
1 22.937 17.3008 10.7257
1 23.7307 16.5071 10.7257
1 23.7507 17.308 9.93292
1 22.9687 16.4929 9.92583
1 24.5244 17.3008 10.7257
1 25.3181 16.5071 10.7257
1 25.3284 17.2858 9.93376
1 24.5119 16.5056 9.93899
1 26.1118 17.3008 10.7257
1 26.9055 16.5071 10.7257
1 26.9176 17.2798 9.93449
1 26.1219 16.4979 9.93933
1 27.6992 17.3008 10.7257
1 28.4929 16.5071 10.7257
1 28.5004 17.276 9.92674
1 27.7081 16.486 9.96536
1 29.2866 17.3008 10.7257
1 0.08031 16.5071 10.7257
1 0.0975547 17.2918 9.93054
1 29.2806 16.5046 9.93758
1 0.874011 17.3008 10.7257
1 1.66771 16.5071 10.7257
1 1.6773 17.2928 9.92745
1 0.857264 16.5034 9.95066
1 2.46141 17.3008 10.7257
1 3.25511 16.5071 10.7257
1 3.27417 17.2989 9.94392
1 2.46396 16.4983 9.93093
1 4.04881 17.3008 10.7257
1 4.84251 16.5071 10.7257
1 4.82867 17.3053 9.93415
1 4.05887 16.5053 9.95958
1 5.63621 17.3008 10.7257
1 6.42991 16.5071 10.7257
1 6.42581 17.3081 9.96164
1 5.63427 16.499 9.91006
1 7.22361 17.3008 10.7257
1 8.01732 16.5071 10.7257
1 8.02471 17.3096 9.92825
1 7.22805 16.5071 9.93585
1 8.81102 17.3008 10.7257
1 9.60472 16.5071 10.7257
1 9.59276 17.34 9.95053
1 8.8002 16.5055 9.95171
1 10.3984 17.3008 10.7257
1 11.1921 16.5071 10.7257
1 11.2118 17.3019 9.94993
1 10.3855 16.528 9.94178
1 11.9858 17.3008 10.7257
1 12.7795 16.5071 10.7257
1 12.7579 17.3148 9.91606
1 11.9691 16.5084 9.9195
1 13.5732 17.3008 10.7257
1 14.3669 16.5071 10.7257
1 14.3273 17.3106 9.89473
1 13.5603 16.5095 9.90178
1 15 15.7134 10.7257
1 15.7937 14.9197 10.7257
1 15.8118 15.688 9.89999
1 15.0527 14.9236 9.88443
1 16.5874 15.7134 10.7257
1 17.3811 14.9197 10.7257
1 17.4069 15.7119 9.93857
1 16.6103 14.9261 9.94076
1 18.1748 15.7134 10.7257
1 18.9685 14.9197 10.7257
1 18.9864 15.7324 9.91125
1 18.1622 14.9444 9.95006
1 19.7622 15.7134 10.7257
1 20.5559 14.9197 10.7257
1 20.5504 15.7025 9.9206
1 19.7866 14.9102 9.91567
1 21.3496 15.7134 10.7257
1 22.1433 14.9197 10.7257
1 22.1408 15.7408 9.91274
1 21.3555 14.8904 9.94721
1 22.937 15.7134 10.7257
1 23.7307 14.9197 10.7257
1 23.725 15.7266 9.94886
1 22.9131 14.932 9.91943
1 24.5244 15.7134 10.7257
1 25.3181 14.9197 10.7257
1 25.3017 15.712 9.92848
1 24.535 14.9153 9.92533
1 26.1118 15.7134 10.7257
1 26.9055 14.9197 10.7257
1 26.9144 15.6923 9.95432
1 26.115 14.9168 9.89665
1 27.6992 15.7134 10.7257
1 28.4929 14.9197 10.7257
1 28.5033 15.698 9.95008
1 27.7132 14.9246 9.94933
1 29.2866 15.7134 10.7257
1 0.08031 14.9197 10.7257
1 0.0876571 15.6887 9.92545
1 29.2694 14.9161 9.92544
1 0.874011 15.7134 10.7257
1 1.66771 14.9197 10.7257
1 1.69009 15.7418 9.92055
1 0.869408 14.9093 9.95555
1 2.46141 15.7134 10.7257
1 3.25511 14.9197 10.7257
1 3.24528 15.7034 9.91377
1 2.4758 14.9407 9.92581
1 4.04881 15.7134 10.7257
1 4.84251 14.9197 10.7257
1 4.84569 15.7085 9.93591
1 4.06329 14.9166 9.94095
1 5.63621 15.7134 10.7257
1 6.42991 14.9197 10.7257
1 6.44137 15.7087 9.93082
1 5.64467 14.9352 9.94127
1 7.22361 15.7134 10.7257
1 8.01732 14.9197 10.7257
1 8.00409 15.7107 9.93338
1 7.22202 14.9029 9.91503
1 8.81102 15.7134 10.7257
1 9.60472 14.9197 10.7257
1 9.61445 15.734 9.92483
1 8.83564 14.8892 9.95438
1 10.3984 15.7134 10.7257
1 11.1921 14.9197 10.7257
1 11.1789 15.7526 9.9346
1 10.4137 14.9227 9.94218
1 11.9858 15.7134 10.7257
1 12.7795 14.9197 10.7257
1 12.7511 15.7135 9.91324
1 11.9866 14.9294 9.9437
1 13.5732 15.7134 10.7257
1 14.3669 14.9197 10.7257
1 14.2824 15.7209 9.90387
1 13.5344 14.9365 9.92789
1 15 14.126 10.7257
1 15.7937 13.3323 10.7257
1 15.8141 14.1223 9.93553
1 15.0588 13.3288 9.90845
1 16.5874 14.126 10.7257
1 17.3811 13.3323 10.7257
1 17.3844 14.1293 9.94904
1 16.6143 13.3272 9.94691
1 18.1748 14.126 10.7257
1 18.9685 13.3323 10.7257
1 18.9665 14.1525 9.96575
1 18.192 13.3527 9.92736
1 19.7622 14.126 10.7257
1 20.5559 13.3323 10.7257
1 20.5607 14.1181 9.9268
1 19.757 13.3312 9.93449
1 21.3496 14.126 10.7257
1 22.1433 13.3323 10.7257
1 22.1444 14.1226 9.93248
1 21.346 13.329 9.9182
1 22.937 14.126 10.7257
1 23.7307 13.3323 10.7257
1 23.7066 14.1113 9.94926
1 22.9004 13.313 9.92969
1 24.5244 14.126 10.7257
1 25.3181 13.3323 10.7257
1 25.3158 14.1204 9.94663
1 24.5306 13.3317 9.91314
1 26.1118 14.126 10.7257
1 26.9055 13.3323 10.7257
1 26.9052 14.1174 9.94151
1 26.0962 13.307 9.92753
1 27.6992 14.126 10.7257
1 28.4929 13.3323 10.7257
1 28.4882 14.1318 9.9497
1 27.7097 13.3256 9.93077
1 29.2866 14.126 10.7257
1 0.08031 13.3323 10.7257
1 0.100448 14.1012 9.93806
1 29.2848 13.3412 9.92625
1 0.874011 14.126 10.7257
1 1.66771 13.3323 10.7257
1 1.65988 14.1265 9.92225
1 0.87382 13.3005 9.91331
1 2.46141 14.126 10.7257
1 3.25511 13.3323 10.7257
1 3.25994 14.1424 9.92246
1 2.46638 13.3511 9.93052
1 4.04881 14.126 10.7257
1 4.84251 13.3323 10.7257
1 4.83322 14.1462 9.92978
1 4.04531 13.3391 9.9563
1 5.63621 14.126 10.7257
1 6.42991 13.3323 10.7257
1 6.42005 14.1377 9.93233
1 5.62495 13.3411 9.94033
1 7.22361 14.126 10.7257
1 8.01732 13.3323 10.7257
1 8.03424 14.1474 9.92812
1 7.21331 13.3618 9.91798
1 8.81102 14.126 10.7257
1 9.60472 13.3323 10.7257
1 9.61596 14.1265 9.9359
1 8.79789 13.3373 9.91676
1 10.3984 14.126 10.7257
1 11.1921 13.3323 10.7257
1 11.1962 14.1402 9.94331
1 10.4162 13.3247 9.9401
1 11.9858 14.126 10.7257
1 12.7795 13.3323 10.7257
1 12.7648 14.1197 9.94046
1 11.9689 13.3485 9.90524
1 13.5732 14.126 10.7257
1 14.3669 13.3323 10.7257
1 14.2712 14.1392 9.90816
1 13.5262 13.3482 9.89313
1 15 12.5386 10.7257
1 15.7937 11.7449 10.7257
1 15.81 12.5565 9.93626
1 15.0897 11.734 9.89385
1 16.5874 12.5386 10.7257
1 17.3811 11.7449 10.7257
1 17.4111 12.5303 9.93025
1 16.6062 11.7446 9.90337
1 18.1748 12.5386 10.7257
1 18.9685 11.7449 10.7257
1 18.9753 12.5555 9.9115
1 18.1809 11.7308 9.93785
1 19.7622 12.5386 10.7257
1 20.5559 11.7449 10.7257
1 20.5653 12.5229 9.91423
1 19.7606 11.7538 9.95155
1 21.3496 12.5386 10.7257
1 22.1433 11.7449 10.7257
1 22.133 12.5277 9.91751
1 21.3247 11.7456 9.94681
1 22.937 12.5386 10.7257
1 23.7307 11.7449 10.7257
1 23.7302 12.5462 9.92797
1 22.9299 11.7498 9.90449
1 24.5244 12.5386 10.7257
1 25.3181 11.7449 10.7257
1 25.3137 12.5263 9.92067
1 24.5066 11.7323 9.93396
1 26.1118 12.5386 10.7257
1 26.9055 11.7449 10.7257
1 26.9129 12.5536 9.94155
1 26.1058 11.764 9.90781
1 27.6992 12.5386 10.7257
1 28.4929 11.7449 10.7257
1 28.4935 12.553 9.96728
1 27.7054 11.7551 9.92043
1 29.2866 12.5386 10.7257
1 0.08031 11.7449 10.7257
1 0.077615 12.5145 9.95909
1 29.2955 11.728 9.95523
1 0.874011 12.5386 10.7257
1 1.66771 11.7449 10.7257
1 1.67335 12.5295 9.93248
1 0.858673 11.741 9.95347
1 2.46141 12.5386 10.7257
1 3.25511 11.7449 10.7257
1 3.2593 12.5615 9.93001
1 2.48159 11.7386 9.93104
1 4.04881 12.5386 10.7257
1 4.84251 11.7449 10.7257
1 4.85648 12.5398 9.91806
1 4.05849 11.7511 9.9517
1 5.63621 12.5386 10.7257
1 6.42991 11.7449 10.7257
1 6.40333 12.5315 9.93949
1 5.63893 11.7417 9.92285
1 7.22361 12.5386 10.7257
1 8.01732 11.7449 10.7257
1 8.01195 12.5328 9.9515
1 7.20667 11.7314 9.92936
1 8.81102 12.5386 10.7257
1 9.60472 11.7449 10.7257
1 9.59132 12.5401 9.94122
1 8.81313 11.7382 9.96226
1 10.3984 12.5386 10.7257
1 11.1921 11.7449 10.7257
1 11.1882 12.5178 9.92426
1 10.3765 11.7461 9.92581
1 11.9858 12.5386 10.7257
1 12.7795 11.7449 10.7257
1 12.7368 12.5433 9.92166
1 11.9551 11.7266 9.94698
1 13.5732 12.5386 10.7257
1 14.3669 11.7449 10.7257
1 14.2993 12.5221 9.88823
1 13.5026 11.7572 9.92379
1 15 10.9512 10.7257
1 15.7937 10.1575 10.7257
1 15.8247 10.9296 9.92965
1 15.0698 10.1688 9.88334
1 16.5874 10.9512 10.7257
1 17.3811 10.1575 10.7257
1 17.3931 10.9277 9.94088
1 16.6133 10.1423 9.93777
1 18.1748 10.9512 10.7257
1 18.9685 10.1575 10.7257
1 18.9804 10.9493 9.94349
1 18.2028 10.1613 9.92725
1 19.7622 10.9512 10.7257
1 20.5559 10.1575 10.7257
1 20.5173 10.9413 9.91567
1 19.7679 10.1635 9.93339
1 21.3496 10.9512 10.7257
1 22.1433 10.1575 10.7257
1 22.1311 10.9519 9.92626
1 21.3386 10.1659 9.94827
1 22.937 10.9512 10.7257
1 23.7307 10.1575 10.7257
1 23.725 10.9564 9.92411
1 22.9365 10.1632 9.93476
1 24.5244 10.9512 10.7257
1 25.3181 10.1575 10.7257
1 25.3076 10.9376 9.94634
1 24.5041 10.1661 9.9329
1 26.1118 10.9512 10.7257
1 26.9055 10.1575 10.7257
1 26.8965 10.9354 9.93934
1 26.0925 10.1358 9.94189
1 27.6992 10.9512 10.7257
1 28.4929 10.1575 10.7257
1 28.5024 10.9404 9.92892
1 27.6943 10.1604 9.91386
1 29.2866 10.9512 10.7257
1 0.08031 10.1575 10.7257
1 0.0851305 10.9305 9.95938
1 29.2821 10.1328 9.92199
1 0.874011 10.9512 10.7257
1 1.66771 10.1575 10.7257
1 1.65255 10.9711 9.93736
1 0.856754 10.1401 9.92476
1 2.46141 10.9512 10.7257
1 3.25511 10.1575 10.7257
1 3.25862 10.9373 9.93045
1 2.42849 10.1744 9.94791
1 4.04881 10.9512 10.7257
1 4.84251 10.1575 10.7257
1 4.84891 10.939 9.9431
1 4.03643 10.1417 9.93593
1 5.63621 10.9512 10.7257
1 6.42991 10.1575 10.7257
1 6.43432 10.934 9.95129
1 5.63657 10.1533 9.93275
1 7.22361 10.9512 10.7257
1 8.01732 10.1575 10.7257
1 8.02163 10.9255 9.9565
1 7.22309 10.1522 9.94467
1 8.81102 10.9512 10.7257
1 9.60472 10.1575 10.7257
1 9.61589 10.9565 9.948
1 8.8223 10.1613 9.93377
1 10.3984 10.9512 10.7257
1 11.1921 10.1575 10.7257
1 11.1735 10.9454 9.92113
1 10.379 10.146 9.92027
1 11.9858 10.9512 10.7257
1 12.7795 10.1575 10.7257
1 12.7442 10.933 9.91723
1 11.9678 10.15 9.93272
1 13.5732 10.9512 10.7257
1 14.3669 10.1575 10.7257
1 14.2807 10.98 9.91688
1 13.5853 10.1639 9.93169
1 15 9.36379 10.7257
1 15.7937 8.57009 10.7257
1 15.8109 9.35897 9.92335
1 15.0544 8.56542 9.91352
1 16.5874 9.36379 10.7257
1 17.3811 8.57009 10.7257
1 17.4328 9.3798 9.90079
1 16.6415 8.55162 9.91309
1 18.1748 9.36379 10.7257
1 18.9685 8.57009 10.7257
1 18.9801 9.36646 9.93931
1 18.1916 8.57521 9.93556
1 19.7622 9.36379 10.7257
1 20.5559 8.57009 10.7257
1 20.5508 9.35673 9.91076
1 19.7707 8.57415 9.92337
1 21.3496 9.36379 10.7257
1 22.1433 8.57009 10.7257
1 22.1483 9.38604 9.94887
1 21.3657 8.58641 9.94166
1 22.937 9.36379 10.7257
1 23.7307 8.57009 10.7257
1 23.755 9.37539 9.94453
1 22.9343 8.57341 9.92312
1 24.5244 9.36379 10.7257
1 25.3181 8.57009 10.7257
1 25.3263 9.32572 9.94681
1 24.4896 8.55462 9.94131
1 26.1118 9.36379 10.7257
1 26.9055 8.57009 10.7257
1 26.9166 9.36187 9.9324
1 26.1262 8.5582 9.94165
1 27.6992 9.36379 10.7257
1 28.4929 8.57009 10.7257
1 28.4877 9.37082 9.92053
1 27.6907 8.56389 9.93575
1 29.2866 9.36379 10.7257
1 0.08031 8.57009 10.7257
1 0.100991 9.35243 9.90888
1 29.3009 8.58303 9.91771
1 0.874011 9.36379 10.7257
1 1.66771 8.57009 10.7257
1 1.67407 9.38636 9.90974
1 0.879767 8.58855 9.93314
1 2.46141 9.36379 10.7257
1 3.25511 8.57009 10.7257
1 3.22651 9.39872 9.9311
1 2.45551 8.57796 9.92941
1 4.04881 9.36379 10.7257
1 4.84251 8.57009 10.7257
1 4.82276 9.38439 9.9338
1 4.02733 8.58192 9.90766
1 5.63621 9.36379 10.7257
1 6.42991 8.57009 10.7257
1 6.41279 9.36025 9.93261
1 5.61705 8.57552 9.91738
1 7.22361 9.36379 10.7257
1 8.01732 8.57009 10.7257
1 8.02573 9.36294 9.91457
1 7.23823 8.56624 9.93113
1 8.81102 9.36379 10.7257
1 9.60472 8.57009 10.7257
1 9.6205 9.36645 9.94672
1 8.80425 8.58703 9.95585
1 10.3984 9.36379 10.7257
1 11.1921 8.57009 10.7257
1 11.1958 9.34986 9.934
1 10.3973 8.55722 9.93345
1 11.9858 9.36379 10.7257
1 12.7795 8.57009 10.7257
1 12.7833 9.36678 9.93149
1 11.9669 8.54195 9.9339
1 13.5732 9.36379 10.7257
1 14.3669 8.57009 10.7257
1 14.3154 9.37768 9.9044
1 13.5749 8.57325 9.9422
1 15 7.77639 10.7257
1 15.7937 6.98268 10.7257
1 15.829 7.79518 9.9393
1 15.0814 6.98009 9.88627
1 16.5874 7.77639 10.7257
1 17.3811 6.98268 10.7257
1 17.405 7.78977 9.92503
1 16.6157 6.99287 9.94006
1 18.1748 7.77639 10.7257
1 18.9685 6.98268 10.7257
1 18.9788 7.77049 9.94881
1 18.1761 6.97681 9.92739
1 19.7622 7.77639 10.7257
1 20.5559 6.98268 10.7257
1 20.566 7.76812 9.93548
1 19.7678 7.00532 9.95851
1 21.3496 7.77639 10.7257
1 22.1433 6.98268 10.7257
1 22.1479 7.78527 9.91444
1 21.3441 7.00055 9.92889
1 22.937 7.77639 10.7257
1 23.7307 6.98268 10.7257
1 23.7324 7.75986 9.9375
1 22.9246 6.96807 9.90284
1 24.5244 7.77639 10.7257
1 25.3181 6.98268 10.7257
1 25.2863 7.76618 9.92723
1 24.5319 6.98323 9.9433
1 26.1118 7.77639 10.7257
1 26.9055 6.98268 10.7257
1 26.9416 7.77049 9.91864
1 26.1338 6.99673 9.9431
1 27.6992 7.77639 10.7257
1 28.4929 6.98268 10.7257
1 28.4971 7.80188 9.93649
1 27.7212 6.97741 9.92452
1 29.2866 7.77639 10.7257
1 0.08031 6.98268 10.7257
1 0.084375 7.78379 9.9324
1 29.2765 6.98265 9.94105
1 0.874011 7.77639 10.7257
1 1.66771 6.98268 10.7257
1 1.67851 7.80146 9.92028
1 0.878541 6.97932 9.91401
1 2.46141 7.77639 10.7257
1 3.25511 6.98268 10.7257
1 3.22732 7.81276 9.94737
1 2.45584 6.98572 9.89455
1 4.04881 7.77639 10.7257
1 4.84251 6.98268 10.7257
1 4.81784 7.79226 9.92832
1 4.0296 6.96753 9.926
1 5.63621 7.77639 10.7257
1 6.42991 6.98268 10.7257
1 6.40542 7.77623 9.91063
1 5.62824 6.97084 9.95498
1 7.22361 7.77639 10.7257
1 8.01732 6.98268 10.7257
1 8.00662 7.74749 9.95214
1 7.22662 6.97528 9.92734
1 8.81102 7.77639 10.7257
1 9.60472 6.98268 10.7257
1 9.58543 7.76327 9.92419
1 8.80587 6.99249 9.92973
1 10.3984 7.77639 10.7257
1 11.1921 6.98268 10.7257
1 11.196 7.74613 9.9305
1 10.3597 6.98502 9.9353
1 11.9858 7.77639 10.7257
1 12.7795 6.98268 10.7257
1 12.7593 7.77301 9.91639
1 11.9874 6.98788 9.91284
1 13.5732 7.77639 10.7257
1 14.3669 6.98268 10.7257
1 14.2751 7.77991 9.91635
1 13.5293 7.01809 9.92837
1 15 6.18898 10.7257
1 15.7937 5.39528 10.7257
1 15.8255 6.1884 9.93021
1 15.0592 5.39789 9.91604
1 16.5874 6.18898 10.7257
1 17.3811 5.39528 10.7257
1 17.3749 6.18653 9.9394
1 16.6334 5.39421 9.92063
1 18.1748 6.18898 10.7257
1 18.9685 5.39528 10.7257
1 18.9964 6.20141 9.91781
1 18.1776 5.3987 9.94762
1 19.7622 6.18898 10.7257
1 20.5559 5.39528 10.7257
1 20.566 6.19158 9.93925
1 19.7696 5.36765 9.90894
1 21.3496 6.18898 10.7257
1 22.1433 5.39528 10.7257
1 22.1195 6.19173 9.93448
1 21.3481 5.41636 9.90969