9376
Atoms. Timestep: 4000000
1 0.00075 3.55271e-15 10.6553
1 0.794451 29.2063 10.6553
1 0.828083 29.9269 9.81748
1 0.097007 29.1876 9.81118
1 1.58815 3.55271e-15 10.6553
1 2.38185 29.2063 10.6553
1 2.40185 29.9168 9.80566
1 1.59541 29.1722 9.88067
1 3.17555 3.55271e-15 10.6553
1 3.96925 29.2063 10.6553
1 3.98419 29.9103 9.80863
1 3.14555 29.1953 9.83948
1 4.76295 3.55271e-15 10.6553
1 5.55665 29.2063 10.6553
1 5.56208 29.9307 9.84592
1 4.78628 29.1919 9.8511
1 6.35035 3.55271e-15 10.6553
1 7.14405 29.2063 10.6553
1 7.16423 29.9285 9.82663
1 6.35675 29.1626 9.84785
1 7.93776 3.55271e-15 10.6553
1 8.73146 29.2063 10.6553
1 8.72587 29.9383 9.82456
1 7.93227 29.1576 9.86448
1 9.52516 3.55271e-15 10.6553
1 10.3189 29.2063 10.6553
1 10.3018 29.932 9.79904
1 9.50586 29.1857 9.86213
1 11.1126 3.55271e-15 10.6553
1 11.9063 29.2063 10.6553
1 11.889 29.9445 9.82478
1 11.0757 29.1771 9.86066
1 12.7 3.55271e-15 10.6553
1 13.4937 29.2063 10.6553
1 13.4893 29.9531 9.83199
1 12.7072 29.1982 9.86217
1 14.2874 3.55271e-15 10.6553
1 15.0811 29.2063 10.6553
1 15.0894 29.9364 9.84581
1 14.2982 29.1754 9.86523
1 15.8748 3.55271e-15 10.6553
1 16.6685 29.2063 10.6553
1 16.6686 29.911 9.83322
1 15.866 29.1484 9.80988
1 17.4622 3.55271e-15 10.6553
1 18.2559 29.2063 10.6553
1 18.2628 29.9257 9.83371
1 17.4737 29.1663 9.84884
1 19.0496 3.55271e-15 10.6553
1 19.8433 29.2063 10.6553
1 19.8415 29.9418 9.81875
1 19.0312 29.1828 9.83315
1 20.637 3.55271e-15 10.6553
1 21.4307 29.2063 10.6553
1 21.4434 29.9308 9.83881
1 20.6372 29.1845 9.85754
1 22.2244 3.55271e-15 10.6553
1 23.0181 29.2063 10.6553
1 22.9963 29.9272 9.83434
1 22.2345 29.1841 9.84504
1 23.8118 3.55271e-15 10.6553
1 24.6055 29.2063 10.6553
1 24.6214 29.9213 9.82707
1 23.8175 29.1758 9.8613
1 25.3992 3.55271e-15 10.6553
1 26.1929 29.2063 10.6553
1 26.1961 29.9428 9.80576
1 25.3918 29.1654 9.85474
1 26.9866 3.55271e-15 10.6553
1 27.7803 29.2063 10.6553
1 27.7616 29.9044 9.81833
1 26.9835 29.1736 9.85062
1 28.574 3.55271e-15 10.6553
1 29.3677 29.2063 10.6553
1 29.3237 29.943 9.79191
1 28.5414 29.1965 9.84013
1 0.00075 28.4126 10.6553
1 0.794451 27.6189 10.6553
1 0.826914 28.3953 9.87995
1 0.0894298 27.5953 9.81939
1 1.58815 28.4126 10.6553
1 2.38185 27.6189 10.6553
1 2.38399 28.3898 9.85846
1 1.59613 27.6299 9.86775
1 3.17555 28.4126 10.6553
1 3.96925 27.6189 10.6553
1 3.9683 28.3878 9.8508
1 3.19625 27.6216 9.84655
1 4.76295 28.4126 10.6553
1 5.55665 27.6189 10.6553
1 5.56132 28.3911 9.88316
1 4.77319 27.5813 9.87829
1 6.35035 28.4126 10.6553
1 7.14405 27.6189 10.6553
1 7.13888 28.3899 9.86052
1 6.35543 27.6215 9.87526
1 7.93776 28.4126 10.6553
1 8.73146 27.6189 10.6553
1 8.73847 28.3981 9.85517
1 7.95331 27.6217 9.86843
1 9.52516 28.4126 10.6553
1 10.3189 27.6189 10.6553
1 10.2994 28.3919 9.85925
1 9.53311 27.6232 9.84083
1 11.1126 28.4126 10.6553
1 11.9063 27.6189 10.6553
1 11.9179 28.4116 9.85244
1 11.1248 27.586 9.9007
1 12.7 28.4126 10.6553
1 13.4937 27.6189 10.6553
1 13.4778 28.396 9.86853
1 12.6803 27.5953 9.85679
1 14.2874 28.4126 10.6553
1 15.0811 27.6189 10.6553
1 15.0716 28.4021 9.85539
1 14.2954 27.608 9.87632
1 15.8748 28.4126 10.6553
1 16.6685 27.6189 10.6553
1 16.6596 28.4021 9.86378
1 15.8825 27.6215 9.85841
1 17.4622 28.4126 10.6553
1 18.2559 27.6189 10.6553
1 18.2592 28.3855 9.85592
1 17.4582 27.6054 9.859
1 19.0496 28.4126 10.6553
1 19.8433 27.6189 10.6553
1 19.8315 28.3966 9.83696
1 19.0467 27.5657 9.86473
1 20.637 28.4126 10.6553
1 21.4307 27.6189 10.6553
1 21.4169 28.3801 9.8579
1 20.6127 27.5919 9.88231
1 22.2244 28.4126 10.6553
1 23.0181 27.6189 10.6553
1 23.0123 28.3664 9.85726
1 22.2162 27.6069 9.85083
1 23.8118 28.4126 10.6553
1 24.6055 27.6189 10.6553
1 24.5899 28.4162 9.86422
1 23.8218 27.6085 9.87938
1 25.3992 28.4126 10.6553
1 26.1929 27.6189 10.6553
1 26.1713 28.3922 9.89891
1 25.3961 27.649 9.87975
1 26.9866 28.4126 10.6553
1 27.7803 27.6189 10.6553
1 27.7851 28.4205 9.82389
1 26.9691 27.6261 9.84591
1 28.574 28.4126 10.6553
1 29.3677 27.6189 10.6553
1 29.3222 28.3869 9.81773
1 28.522 27.5915 9.83525
1 0.00075 26.8252 10.6553
1 0.794451 26.0315 10.6553
1 0.825283 26.8578 9.84165
1 0.064651 26.0201 9.84413
1 1.58815 26.8252 10.6553
1 2.38185 26.0315 10.6553
1 2.36031 26.8464 9.88389
1 1.59079 26.0614 9.87291
1 3.17555 26.8252 10.6553
1 3.96925 26.0315 10.6553
1 3.9816 26.817 9.87255
1 3.17889 26.0303 9.8664
1 4.76295 26.8252 10.6553
1 5.55665 26.0315 10.6553
1 5.59382 26.8221 9.84777
1 4.76939 26.0138 9.82871
1 6.35035 26.8252 10.6553
1 7.14405 26.0315 10.6553
1 7.14679 26.8486 9.8547
1 6.32936 26.0355 9.84603
1 7.93776 26.8252 10.6553
1 8.73146 26.0315 10.6553
1 8.7568 26.8316 9.85059
1 7.93131 26.0401 9.84961
1 9.52516 26.8252 10.6553
1 10.3189 26.0315 10.6553
1 10.3015 26.8167 9.8413
1 9.52119 26.019 9.862
1 11.1126 26.8252 10.6553
1 11.9063 26.0315 10.6553
1 11.9089 26.8117 9.87369
1 11.1136 26.0303 9.84791
1 12.7 26.8252 10.6553
1 13.4937 26.0315 10.6553
1 13.4741 26.8276 9.86637
1 12.7081 26.0111 9.88265
1 14.2874 26.8252 10.6553
1 15.0811 26.0315 10.6553
1 15.1019 26.8338 9.86236
1 14.302 26.0321 9.86271
1 15.8748 26.8252 10.6553
1 16.6685 26.0315 10.6553
1 16.6806 26.8287 9.87449
1 15.8799 26.0182 9.8535
1 17.4622 26.8252 10.6553
1 18.2559 26.0315 10.6553
1 18.2704 26.7972 9.87256
1 17.4745 25.9967 9.88549
1 19.0496 26.8252 10.6553
1 19.8433 26.0315 10.6553
1 19.8277 26.8077 9.85782
1 19.0438 26.034 9.86692
1 20.637 26.8252 10.6553
1 21.4307 26.0315 10.6553
1 21.4242 26.8153 9.86365
1 20.6403 26.0268 9.85254
1 22.2244 26.8252 10.6553
1 23.0181 26.0315 10.6553
1 23.0141 26.8042 9.89465
1 22.2371 26.0183 9.86515
1 23.8118 26.8252 10.6553
1 24.6055 26.0315 10.6553
1 24.5889 26.8104 9.88836
1 23.8216 26.0222 9.89398
1 25.3992 26.8252 10.6553
1 26.1929 26.0315 10.6553
1 26.1873 26.8088 9.86488
1 25.4106 26.0357 9.90823
1 26.9866 26.8252 10.6553
1 27.7803 26.0315 10.6553
1 27.7555 26.8029 9.87206
1 26.9758 26.0379 9.84051
1 28.574 26.8252 10.6553
1 29.3677 26.0315 10.6553
1 29.2948 26.7982 9.8217
1 28.516 26.0339 9.86715
1 0.00075 25.2378 10.6553
1 0.794451 24.4441 10.6553
1 0.805515 25.2462 9.85971
1 0.055438 24.4208 9.82966
1 1.58815 25.2378 10.6553
1 2.38185 24.4441 10.6553
1 2.4032 25.2397 9.86524
1 1.60557 24.4308 9.86486
1 3.17555 25.2378 10.6553
1 3.96925 24.4441 10.6553
1 3.97633 25.2585 9.84847
1 3.18919 24.4418 9.87725
1 4.76295 25.2378 10.6553
1 5.55665 24.4441 10.6553
1 5.56063 25.241 9.86148
1 4.76038 24.453 9.87676
1 6.35035 25.2378 10.6553
1 7.14405 24.4441 10.6553
1 7.14834 25.2472 9.86738
1 6.36101 24.4334 9.88736
1 7.93776 25.2378 10.6553
1 8.73146 24.4441 10.6553
1 8.74988 25.2462 9.85321
1 7.96262 24.4406 9.86547
1 9.52516 25.2378 10.6553
1 10.3189 24.4441 10.6553
1 10.344 25.2269 9.85761
1 9.53565 24.446 9.86672
1 11.1126 25.2378 10.6553
1 11.9063 24.4441 10.6553
1 11.8968 25.2208 9.87811
1 11.1102 24.432 9.85946
1 12.7 25.2378 10.6553
1 13.4937 24.4441 10.6553
1 13.5026 25.2465 9.86431
1 12.7322 24.4033 9.86999
1 14.2874 25.2378 10.6553
1 15.0811 24.4441 10.6553
1 15.096 25.235 9.87039
1 14.2763 24.4547 9.87102
1 15.8748 25.2378 10.6553
1 16.6685 24.4441 10.6553
1 16.6538 25.254 9.86947
1 15.8759 24.455 9.86553
1 17.4622 25.2378 10.6553
1 18.2559 24.4441 10.6553
1 18.2878 25.2432 9.85366
1 17.465 24.4495 9.86144
1 19.0496 25.2378 10.6553
1 19.8433 24.4441 10.6553
1 19.816 25.2255 9.83017
1 19.0467 24.4273 9.84938
1 20.637 25.2378 10.6553
1 21.4307 24.4441 10.6553
1 21.4038 25.2363 9.84562
1 20.6432 24.4526 9.8496
1 22.2244 25.2378 10.6553
1 23.0181 24.4441 10.6553
1 23.0234 25.2103 9.85308
1 22.2274 24.4242 9.86281
1 23.8118 25.2378 10.6553
1 24.6055 24.4441 10.6553
1 24.6169 25.251 9.85199
1 23.831 24.4384 9.87001
1 25.3992 25.2378 10.6553
1 26.1929 24.4441 10.6553
1 26.1958 25.2564 9.85725
1 25.4208 24.4714 9.84965
1 26.9866 25.2378 10.6553
1 27.7803 24.4441 10.6553
1 27.7529 25.2393 9.86884
1 26.9805 24.4326 9.85128
1 28.574 25.2378 10.6553
1 29.3677 24.4441 10.6553
1 29.2873 25.2324 9.81873
1 28.5451 24.4318 9.83943
1 0.00075 23.6504 10.6553
1 0.794451 22.8567 10.6553
1 0.825975 23.645 9.86906
1 0.0651845 22.8626 9.84928
1 1.58815 23.6504 10.6553
1 2.38185 22.8567 10.6553
1 2.3927 23.6329 9.87355
1 1.58689 22.8608 9.8733
1 3.17555 23.6504 10.6553
1 3.96925 22.8567 10.6553
1 3.97666 23.6641 9.85942
1 3.18123 22.8531 9.84175
1 4.76295 23.6504 10.6553
1 5.55665 22.8567 10.6553
1 5.5388 23.6769 9.88703
1 4.76728 22.8427 9.86916
1 6.35035 23.6504 10.6553
1 7.14405 22.8567 10.6553
1 7.12341 23.6467 9.85507
1 6.37387 22.8572 9.87121
1 7.93776 23.6504 10.6553
1 8.73146 22.8567 10.6553
1 8.75453 23.6384 9.87557
1 7.94572 22.8702 9.84475
1 9.52516 23.6504 10.6553
1 10.3189 22.8567 10.6553
1 10.3386 23.6329 9.84352
1 9.51701 22.8501 9.84145
1 11.1126 23.6504 10.6553
1 11.9063 22.8567 10.6553
1 11.9083 23.666 9.87428
1 11.1089 22.8674 9.86876
1 12.7 23.6504 10.6553
1 13.4937 22.8567 10.6553
1 13.5135 23.6363 9.8488
1 12.7113 22.8506 9.85008
1 14.2874 23.6504 10.6553
1 15.0811 22.8567 10.6553
1 15.0874 23.6749 9.90025
1 14.2849 22.8531 9.86042
1 15.8748 23.6504 10.6553
1 16.6685 22.8567 10.6553
1 16.6624 23.6546 9.85715
1 15.8736 22.8595 9.87031
1 17.4622 23.6504 10.6553
1 18.2559 22.8567 10.6553
1 18.2498 23.6377 9.84252
1 17.4209 22.8695 9.84634
1 19.0496 23.6504 10.6553
1 19.8433 22.8567 10.6553
1 19.8463 23.6529 9.83773
1 19.0484 22.8516 9.86284
1 20.637 23.6504 10.6553
1 21.4307 22.8567 10.6553
1 21.4351 23.6389 9.86304
1 20.6137 22.839 9.8718
1 22.2244 23.6504 10.6553
1 23.0181 22.8567 10.6553
1 23.0441 23.6609 9.86614
1 22.2126 22.8569 9.85438
1 23.8118 23.6504 10.6553
1 24.6055 22.8567 10.6553
1 24.6074 23.6456 9.85439
1 23.8355 22.8517 9.87223
1 25.3992 23.6504 10.6553
1 26.1929 22.8567 10.6553
1 26.1864 23.6482 9.84484
1 25.3823 22.8422 9.87278
1 26.9866 23.6504 10.6553
1 27.7803 22.8567 10.6553
1 27.7547 23.6582 9.8517
1 26.9719 22.8604 9.88082
1 28.574 23.6504 10.6553
1 29.3677 22.8567 10.6553
1 29.2937 23.6332 9.856
1 28.5299 22.8498 9.8852
1 0.00075 22.063 10.6553
1 0.794451 21.2693 10.6553
1 0.806865 22.0425 9.86798
1 0.0598604 21.2759 9.81839
1 1.58815 22.063 10.6553
1 2.38185 21.2693 10.6553
1 2.37831 22.0833 9.87701
1 1.60598 21.2833 9.84144
1 3.17555 22.063 10.6553
1 3.96925 21.2693 10.6553
1 3.97163 22.0703 9.88973
1 3.16446 21.2549 9.84945
1 4.76295 22.063 10.6553
1 5.55665 21.2693 10.6553
1 5.55615 22.0797 9.86549
1 4.77284 21.2715 9.9012
1 6.35035 22.063 10.6553
1 7.14405 21.2693 10.6553
1 7.16723 22.0569 9.88558
1 6.33244 21.2569 9.88167
1 7.93776 22.063 10.6553
1 8.73146 21.2693 10.6553
1 8.73986 22.0634 9.84486
1 7.9443 21.2519 9.82673
1 9.52516 22.063 10.6553
1 10.3189 21.2693 10.6553
1 10.3021 22.0562 9.85977
1 9.52526 21.2666 9.86596
1 11.1126 22.063 10.6553
1 11.9063 21.2693 10.6553
1 11.8948 22.0795 9.87657
1 11.1055 21.2448 9.86412
1 12.7 22.063 10.6553
1 13.4937 21.2693 10.6553
1 13.5101 22.0745 9.8389
1 12.7088 21.2769 9.88065
1 14.2874 22.063 10.6553
1 15.0811 21.2693 10.6553
1 15.1041 22.0485 9.85355
1 14.263 21.2802 9.85571
1 15.8748 22.063 10.6553
1 16.6685 21.2693 10.6553
1 16.6413 22.0641 9.86242
1 15.8818 21.2752 9.8569
1 17.4622 22.063 10.6553
1 18.2559 21.2693 10.6553
1 18.2376 22.0664 9.88241
1 17.4631 21.2566 9.86424
1 19.0496 22.063 10.6553
1 19.8433 21.2693 10.6553
1 19.8503 22.0592 9.8595
1 19.0176 21.272 9.86224
1 20.637 22.063 10.6553
1 21.4307 21.2693 10.6553
1 21.42 22.0579 9.83953
1 20.611 21.2403 9.87385
1 22.2244 22.063 10.6553
1 23.0181 21.2693 10.6553
1 23.0285 22.0772 9.86995
1 22.2474 21.2887 9.86911
1 23.8118 22.063 10.6553
1 24.6055 21.2693 10.6553
1 24.5911 22.0497 9.87491
1 23.822 21.2948 9.86768
1 25.3992 22.063 10.6553
1 26.1929 21.2693 10.6553
1 26.1883 22.0502 9.85183
1 25.3733 21.2562 9.85259
1 26.9866 22.063 10.6553
1 27.7803 21.2693 10.6553
1 27.7517 22.0471 9.84503
1 26.9577 21.2536 9.85998
1 28.574 22.063 10.6553
1 29.3677 21.2693 10.6553
1 29.3019 22.0445 9.83172
1 28.5284 21.2572 9.87127
1 0.00075 20.4756 10.6553
1 0.794451 19.6819 10.6553
1 0.814142 20.4884 9.87174
1 0.0560468 19.7016 9.83503
1 1.58815 20.4756 10.6553
1 2.38185 19.6819 10.6553
1 2.38202 20.4561 9.84595
1 1.58256 19.6685 9.85067
1 3.17555 20.4756 10.6553
1 3.96925 19.6819 10.6553
1 3.98265 20.456 9.87326
1 3.206 19.6674 9.88507
1 4.76295 20.4756 10.6553
1 5.55665 19.6819 10.6553
1 5.56275 20.4608 9.86117
1 4.76213 19.6906 9.85586
1 6.35035 20.4756 10.6553
1 7.14405 19.6819 10.6553
1 7.13512 20.4601 9.87266
1 6.36955 19.6856 9.86665
1 7.93776 20.4756 10.6553
1 8.73146 19.6819 10.6553
1 8.74131 20.477 9.85932
1 7.92559 19.6922 9.88019
1 9.52516 20.4756 10.6553
1 10.3189 19.6819 10.6553
1 10.33 20.465 9.85799
1 9.51823 19.6781 9.85069
1 11.1126 20.4756 10.6553
1 11.9063 19.6819 10.6553
1 11.9065 20.4821 9.87829
1 11.1236 19.6883 9.8697
1 12.7 20.4756 10.6553
1 13.4937 19.6819 10.6553
1 13.5035 20.4786 9.8457
1 12.6996 19.6946 9.86007
1 14.2874 20.4756 10.6553
1 15.0811 19.6819 10.6553
1 15.0906 20.4893 9.85397
1 14.2745 19.6928 9.85368
1 15.8748 20.4756 10.6553
1 16.6685 19.6819 10.6553
1 16.6602 20.4775 9.85492
1 15.8636 19.6601 9.86932
1 17.4622 20.4756 10.6553
1 18.2559 19.6819 10.6553
1 18.2548 20.4611 9.86323
1 17.4575 19.6806 9.8572
1 19.0496 20.4756 10.6553
1 19.8433 19.6819 10.6553
1 19.8236 20.4855 9.86814
1 19.0567 19.6797 9.85501
1 20.637 20.4756 10.6553
1 21.4307 19.6819 10.6553
1 21.442 20.4758 9.87364
1 20.6092 19.7047 9.86373
1 22.2244 20.4756 10.6553
1 23.0181 19.6819 10.6553
1 23.0065 20.4622 9.85586
1 22.2301 19.7058 9.85358
1 23.8118 20.4756 10.6553
1 24.6055 19.6819 10.6553
1 24.5925 20.5034 9.86861
1 23.8032 19.6987 9.86567
1 25.3992 20.4756 10.6553
1 26.1929 19.6819 10.6553
1 26.1629 20.4591 9.86551
1 25.3767 19.6575 9.8832
1 26.9866 20.4756 10.6553
1 27.7803 19.6819 10.6553
1 27.7492 20.4834 9.8525
1 26.9565 19.6994 9.86428
1 28.574 20.4756 10.6553
1 29.3677 19.6819 10.6553
1 29.287 20.4757 9.84524
1 28.548 19.6714 9.85254
1 0.00075 18.8882 10.6553
1 0.794451 18.0945 10.6553
1 0.817595 18.8969 9.84315
1 0.0566067 18.101 9.82491
1 1.58815 18.8882 10.6553
1 2.38185 18.0945 10.6553
1 2.39183 18.8858 9.86646
1 1.62356 18.1154 9.85745
1 3.17555 18.8882 10.6553
1 3.96925 18.0945 10.6553
1 3.97946 18.8834 9.87287
1 3.19157 18.1093 9.87979
1 4.76295 18.8882 10.6553
1 5.55665 18.0945 10.6553
1 5.57531 18.8926 9.8587
1 4.78222 18.0996 9.85521
1 6.35035 18.8882 10.6553
1 7.14405 18.0945 10.6553
1 7.14438 18.9018 9.86642
1 6.35885 18.115 9.85656
1 7.93776 18.8882 10.6553
1 8.73146 18.0945 10.6553
1 8.72411 18.89 9.88359
1 7.94381 18.0889 9.86276
1 9.52516 18.8882 10.6553
1 10.3189 18.0945 10.6553
1 10.3275 18.8981 9.86511
1 9.54156 18.1186 9.86412
1 11.1126 18.8882 10.6553
1 11.9063 18.0945 10.6553
1 11.925 18.8683 9.8711
1 11.1364 18.1022 9.85496
1 12.7 18.8882 10.6553
1 13.4937 18.0945 10.6553
1 13.5104 18.8931 9.83518
1 12.7084 18.0883 9.86964
1 14.2874 18.8882 10.6553
1 15.0811 18.0945 10.6553
1 15.0958 18.8893 9.85006
1 14.285 18.083 9.84986
1 15.8748 18.8882 10.6553
1 16.6685 18.0945 10.6553
1 16.6812 18.8759 9.86835
1 15.8776 18.1026 9.83432
1 17.4622 18.8882 10.6553
1 18.2559 18.0945 10.6553
1 18.257 18.8863 9.84598
1 17.4641 18.1184 9.85093
1 19.0496 18.8882 10.6553
1 19.8433 18.0945 10.6553
1 19.8341 18.8867 9.88088
1 19.0424 18.0808 9.87073
1 20.637 18.8882 10.6553
1 21.4307 18.0945 10.6553
1 21.4265 18.8931 9.8463
1 20.6405 18.0886 9.86248
1 22.2244 18.8882 10.6553
1 23.0181 18.0945 10.6553
1 23.0284 18.8759 9.86149
1 22.2095 18.0879 9.85579
1 23.8118 18.8882 10.6553
1 24.6055 18.0945 10.6553
1 24.6095 18.8873 9.84121
1 23.8105 18.0844 9.86763
1 25.3992 18.8882 10.6553
1 26.1929 18.0945 10.6553
1 26.1945 18.9055 9.87484
1 25.387 18.0902 9.8599
1 26.9866 18.8882 10.6553
1 27.7803 18.0945 10.6553
1 27.7694 18.8898 9.86305
1 26.9917 18.1073 9.85439
1 28.574 18.8882 10.6553
1 29.3677 18.0945 10.6553
1 29.3319 18.8788 9.82501
1 28.5456 18.0962 9.87737
1 0.00075 17.3008 10.6553
1 0.794451 16.5071 10.6553
1 0.862952 17.3332 9.8685
1 0.0626868 16.5352 9.83592
1 1.58815 17.3008 10.6553
1 2.38185 16.5071 10.6553
1 2.37937 17.3061 9.88429
1 1.60019 16.4898 9.85975
1 3.17555 17.3008 10.6553
1 3.96925 16.5071 10.6553
1 3.96718 17.3005 9.87662
1 3.17604 16.5136 9.8728
1 4.76295 17.3008 10.6553
1 5.55665 16.5071 10.6553
1 5.59594 17.3274 9.8626
1 4.75971 16.5164 9.86905
1 6.35035 17.3008 10.6553
1 7.14405 16.5071 10.6553
1 7.13219 17.3201 9.84801
1 6.35949 16.5186 9.87886
1 7.93776 17.3008 10.6553
1 8.73146 16.5071 10.6553
1 8.72618 17.3119 9.87905
1 7.94245 16.5262 9.86385
1 9.52516 17.3008 10.6553
1 10.3189 16.5071 10.6553
1 10.3282 17.3247 9.86806
1 9.53033 16.535 9.87985
1 11.1126 17.3008 10.6553
1 11.9063 16.5071 10.6553
1 11.9113 17.2994 9.84153
1 11.0999 16.5174 9.83904
1 12.7 17.3008 10.6553
1 13.4937 16.5071 10.6553
1 13.4894 17.3034 9.86014
1 12.7217 16.5087 9.86585
1 14.2874 17.3008 10.6553
1 15.0811 16.5071 10.6553
1 15.11 17.3299 9.87276
1 14.3046 16.5062 9.86332
1 15.8748 17.3008 10.6553
1 16.6685 16.5071 10.6553
1 16.6622 17.2892 9.87612
1 15.8694 16.5055 9.85366
1 17.4622 17.3008 10.6553
1 18.2559 16.5071 10.6553
1 18.2547 17.2771 9.86919
1 17.4455 16.4857 9.86277
1 19.0496 17.3008 10.6553
1 19.8433 16.5071 10.6553
1 19.8221 17.3087 9.85899
1 19.0634 16.4982 9.85183
1 20.637 17.3008 10.6553
1 21.4307 16.5071 10.6553
1 21.435 17.2944 9.86579
1 20.6439 16.5304 9.87974
1 22.2244 17.3008 10.6553
1 23.0181 16.5071 10.6553
1 22.9951 17.2833 9.85271
1 22.2406 16.4947 9.85375
1 23.8118 17.3008 10.6553
1 24.6055 16.5071 10.6553
1 24.6142 17.3039 9.87761
1 23.8239 16.5243 9.8607
1 25.3992 17.3008 10.6553
1 26.1929 16.5071 10.6553
1 26.1926 17.2901 9.86287
1 25.4022 16.4921 9.86674
1 26.9866 17.3008 10.6553
1 27.7803 16.5071 10.6553
1 27.7767 17.3076 9.85609
1 27.0144 16.5091 9.84758
1 28.574 17.3008 10.6553
1 29.3677 16.5071 10.6553
1 29.3118 17.2925 9.81967
1 28.5328 16.4983 9.85347
1 0.00075 15.7134 10.6553
1 0.794451 14.9197 10.6553
1 0.798321 15.7488 9.84821
1 0.074614 14.9427 9.80536
1 1.58815 15.7134 10.6553
1 2.38185 14.9197 10.6553
1 2.40225 15.7065 9.89763
1 1.58849 14.9348 9.8594
1 3.17555 15.7134 10.6553
1 3.96925 14.9197 10.6553
1 3.98616 15.7115 9.85382
1 3.17669 14.9134 9.87177
1 4.76295 15.7134 10.6553
1 5.55665 14.9197 10.6553
1 5.56076 15.7036 9.84844
1 4.74552 14.8986 9.86074
1 6.35035 15.7134 10.6553
1 7.14405 14.9197 10.6553
1 7.13391 15.7327 9.86139
1 6.3523 14.9045 9.86224
1 7.93776 15.7134 10.6553
1 8.73146 14.9197 10.6553
1 8.71657 15.712 9.83211
1 7.92852 14.9101 9.8464
1 9.52516 15.7134 10.6553
1 10.3189 14.9197 10.6553
1 10.2941 15.726 9.86665
1 9.53694 14.9048 9.85552
1 11.1126 15.7134 10.6553
1 11.9063 14.9197 10.6553
1 11.8948 15.7142 9.8712
1 11.1038 14.9247 9.87884
1 12.7 15.7134 10.6553
1 13.4937 14.9197 10.6553
1 13.4849 15.7038 9.85027
1 12.6992 14.8887 9.8742
1 14.2874 15.7134 10.6553
1 15.0811 14.9197 10.6553
1 15.084 15.6911 9.86072
1 14.2729 14.9185 9.85345
1 15.8748 15.7134 10.6553
1 16.6685 14.9197 10.6553
1 16.6676 15.7299 9.87135
1 15.8729 14.9481 9.8745
1 17.4622 15.7134 10.6553
1 18.2559 14.9197 10.6553
1 18.2858 15.71 9.85823
1 17.4674 14.9235 9.87406
1 19.0496 15.7134 10.6553
1 19.8433 14.9197 10.6553
1 19.8379 15.7077 9.8689
1 19.0575 14.9157 9.89188
1 20.637 15.7134 10.6553
1 21.4307 14.9197 10.6553
1 21.4337 15.7121 9.85772
1 20.6157 14.9136 9.85994
1 22.2244 15.7134 10.6553
1 23.0181 14.9197 10.6553
1 23.0164 15.7061 9.86973
1 22.2191 14.8943 9.87003
1 23.8118 15.7134 10.6553
1 24.6055 14.9197 10.6553
1 24.5874 15.7068 9.87632
1 23.7857 14.9192 9.87514
1 25.3992 15.7134 10.6553
1 26.1929 14.9197 10.6553
1 26.1752 15.7255 9.84925
1 25.4193 14.9107 9.86518
1 26.9866 15.7134 10.6553
1 27.7803 14.9197 10.6553
1 27.7883 15.6743 9.8417
1 26.9751 14.9159 9.86994
1 28.574 15.7134 10.6553
1 29.3677 14.9197 10.6553
1 29.3141 15.7212 9.8116
1 28.5652 14.9146 9.83765
1 0.00075 14.126 10.6553
1 0.794451 13.3323 10.6553
1 0.820977 14.1274 9.82987
1 0.0756419 13.3478 9.84046
1 1.58815 14.126 10.6553
1 2.38185 13.3323 10.6553
1 2.37282 14.1302 9.8642
1 1.6022 13.3561 9.85884
1 3.17555 14.126 10.6553
1 3.96925 13.3323 10.6553
1 3.95815 14.1204 9.86779
1 3.15865 13.367 9.85335
1 4.76295 14.126 10.6553
1 5.55665 13.3323 10.6553
1 5.57299 14.1138 9.85764
1 4.77052 13.3422 9.8651
1 6.35035 14.126 10.6553
1 7.14405 13.3323 10.6553
1 7.13099 14.103 9.84461
1 6.33674 13.3436 9.8451
1 7.93776 14.126 10.6553
1 8.73146 13.3323 10.6553
1 8.73509 14.1192 9.86339
1 7.92615 13.3261 9.86981
1 9.52516 14.126 10.6553
1 10.3189 13.3323 10.6553
1 10.339 14.1185 9.83592
1 9.54753 13.3311 9.85805
1 11.1126 14.126 10.6553
1 11.9063 13.3323 10.6553
1 11.8893 14.1281 9.84678
1 11.0979 13.3165 9.87794
1 12.7 14.126 10.6553
1 13.4937 13.3323 10.6553
1 13.4871 14.1286 9.87543
1 12.7014 13.3389 9.86088
1 14.2874 14.126 10.6553
1 15.0811 13.3323 10.6553
1 15.107 14.1203 9.83911
1 14.3262 13.3417 9.84139
1 15.8748 14.126 10.6553
1 16.6685 13.3323 10.6553
1 16.6376 14.1308 9.87515
1 15.8786 13.33 9.87028
1 17.4622 14.126 10.6553
1 18.2559 13.3323 10.6553
1 18.2404 14.1359 9.86184
1 17.4331 13.3452 9.87569
1 19.0496 14.126 10.6553
1 19.8433 13.3323 10.6553
1 19.8351 14.1142 9.86819
1 19.0525 13.3207 9.84905
1 20.637 14.126 10.6553
1 21.4307 13.3323 10.6553
1 21.4287 14.1396 9.85287
1 20.6372 13.331 9.86613
1 22.2244 14.126 10.6553
1 23.0181 13.3323 10.6553
1 23.0224 14.1427 9.89277
1 22.2291 13.3455 9.84505
1 23.8118 14.126 10.6553
1 24.6055 13.3323 10.6553
1 24.6257 14.1288 9.88078
1 23.799 13.3484 9.86617
1 25.3992 14.126 10.6553
1 26.1929 13.3323 10.6553
1 26.1952 14.1239 9.8435
1 25.3714 13.3138 9.87397
1 26.9866 14.126 10.6553
1 27.7803 13.3323 10.6553
1 27.7669 14.1204 9.87227
1 26.9781 13.3147 9.86437
1 28.574 14.126 10.6553
1 29.3677 13.3323 10.6553
1 29.3166 14.1473 9.8249
1 28.5515 13.3461 9.85112
1 0.00075 12.5386 10.6553
1 0.794451 11.7449 10.6553
1 0.833329 12.5291 9.84834
1 0.0699901 11.7517 9.83521
1 1.58815 12.5386 10.6553
1 2.38185 11.7449 10.6553
1 2.40378 12.535 9.85052
1 1.58806 11.7469 9.86449
1 3.17555 12.5386 10.6553
1 3.96925 11.7449 10.6553
1 3.96723 12.5414 9.8641
1 3.18746 11.7296 9.86299
1 4.76295 12.5386 10.6553
1 5.55665 11.7449 10.6553
1 5.54369 12.5303 9.87105
1 4.76328 11.7352 9.86511
1 6.35035 12.5386 10.6553
1 7.14405 11.7449 10.6553
1 7.15757 12.529 9.85344
1 6.33653 11.7513 9.8482
1 7.93776 12.5386 10.6553
1 8.73146 11.7449 10.6553
1 8.74122 12.5364 9.85246
1 7.95709 11.7308 9.84394
1 9.52516 12.5386 10.6553
1 10.3189 11.7449 10.6553
1 10.2891 12.5299 9.85745
1 9.52284 11.7441 9.86471
1 11.1126 12.5386 10.6553
1 11.9063 11.7449 10.6553
1 11.9251 12.5245 9.88524
1 11.1185 11.743 9.87208
1 12.7 12.5386 10.6553
1 13.4937 11.7449 10.6553
1 13.4883 12.5389 9.85199
1 12.7361 11.7282 9.86332
1 14.2874 12.5386 10.6553
1 15.0811 11.7449 10.6553
1 15.0799 12.5456 9.86542
1 14.2905 11.7334 9.86257
1 15.8748 12.5386 10.6553
1 16.6685 11.7449 10.6553
1 16.6806 12.5331 9.85993
1 15.8591 11.7293 9.87399
1 17.4622 12.5386 10.6553
1 18.2559 11.7449 10.6553
1 18.2595 12.5222 9.85589
1 17.4701 11.7472 9.87018
1 19.0496 12.5386 10.6553
1 19.8433 11.7449 10.6553
1 19.8362 12.5299 9.83653
1 19.0485 11.7365 9.84948
1 20.637 12.5386 10.6553
1 21.4307 11.7449 10.6553
1 21.4298 12.5133 9.87107
1 20.644 11.7367 9.86427
1 22.2244 12.5386 10.6553
1 23.0181 11.7449 10.6553
1 22.9838 12.542 9.87197
1 22.2465 11.7512 9.85069
1 23.8118 12.5386 10.6553
1 24.6055 11.7449 10.6553
1 24.5627 12.5462 9.88299
1 23.7969 11.7662 9.8652
1 25.3992 12.5386 10.6553
1 26.1929 11.7449 10.6553
1 26.1664 12.542 9.84963
1 25.3825 11.7386 9.8582
1 26.9866 12.5386 10.6553
1 27.7803 11.7449 10.6553
1 27.7457 12.5342 9.84379
1 26.9785 11.7657 9.86152
1 28.574 12.5386 10.6553
1 29.3677 11.7449 10.6553
1 29.3186 12.5452 9.83489
1 28.5303 11.7805 9.86731
1 0.00075 10.9512 10.6553
1 0.794451 10.1575 10.6553
1 0.815399 10.9251 9.85243
1 0.0431782 10.1637 9.84137
1 1.58815 10.9512 10.6553
1 2.38185 10.1575 10.6553
1 2.37259 10.9382 9.87836
1 1.61682 10.1413 9.85273
1 3.17555 10.9512 10.6553
1 3.96925 10.1575 10.6553
1 3.98572 10.9211 9.8671
1 3.15568 10.154 9.86547
1 4.76295 10.9512 10.6553
1 5.55665 10.1575 10.6553
1 5.57876 10.9503 9.85447
1 4.79492 10.1609 9.87884
1 6.35035 10.9512 10.6553
1 7.14405 10.1575 10.6553
1 7.14918 10.9215 9.86999
1 6.33029 10.1474 9.85604
1 7.93776 10.9512 10.6553
1 8.73146 10.1575 10.6553
1 8.7232 10.9412 9.86044
1 7.94597 10.1428 9.84355
1 9.52516 10.9512 10.6553
1 10.3189 10.1575 10.6553
1 10.3197 10.96 9.86344
1 9.53979 10.1764 9.84177
1 11.1126 10.9512 10.6553
1 11.9063 10.1575 10.6553
1 11.9084 10.9379 9.83535
1 11.1164 10.1276 9.83964
1 12.7 10.9512 10.6553
1 13.4937 10.1575 10.6553
1 13.4949 10.9482 9.87419
1 12.6907 10.1715 9.84315
1 14.2874 10.9512 10.6553
1 15.0811 10.1575 10.6553
1 15.0653 10.9437 9.85999
1 14.2754 10.1395 9.86469
1 15.8748 10.9512 10.6553
1 16.6685 10.1575 10.6553
1 16.6773 10.9603 9.8772
1 15.8754 10.1357 9.84605
1 17.4622 10.9512 10.6553
1 18.2559 10.1575 10.6553
1 18.2372 10.952 9.8681
1 17.4721 10.1645 9.86684
1 19.0496 10.9512 10.6553
1 19.8433 10.1575 10.6553
1 19.8357 10.9531 9.87282
1 19.0401 10.1716 9.85962
1 20.637 10.9512 10.6553
1 21.4307 10.1575 10.6553
1 21.4571 10.9608 9.8656
1 20.6397 10.166 9.86551
1 22.2244 10.9512 10.6553
1 23.0181 10.1575 10.6553
1 23.0276 10.9519 9.86354
1 22.2328 10.1779 9.85353
1 23.8118 10.9512 10.6553
1 24.6055 10.1575 10.6553
1 24.5984 10.9572 9.89473
1 23.8118 10.178 9.87543
1 25.3992 10.9512 10.6553
1 26.1929 10.1575 10.6553
1 26.1878 10.9674 9.89183
1 25.3892 10.1674 9.85411
1 26.9866 10.9512 10.6553
1 27.7803 10.1575 10.6553
1 27.7577 10.9484 9.85582
1 26.9771 10.1612 9.85259
1 28.574 10.9512 10.6553
1 29.3677 10.1575 10.6553
1 29.2998 10.9476 9.84329
1 28.5342 10.1385 9.85469
1 0.00075 9.36379 10.6553
1 0.794451 8.57009 10.6553
1 0.821904 9.36867 9.83676
1 0.0764312 8.55982 9.81855
1 1.58815 9.36379 10.6553
1 2.38185 8.57009 10.6553
1 2.37776 9.3641 9.84469
1 1.5868 8.56449 9.86927
1 3.17555 9.36379 10.6553
1 3.96925 8.57009 10.6553
1 3.96145 9.36521 9.85989
1 3.18197 8.59735 9.84731
1 4.76295 9.36379 10.6553
1 5.55665 8.57009 10.6553
1 5.55328 9.36945 9.86638
1 4.78112 8.56946 9.87543
1 6.35035 9.36379 10.6553
1 7.14405 8.57009 10.6553
1 7.12889 9.35476 9.84994
1 6.35936 8.55907 9.85672
1 7.93776 9.36379 10.6553
1 8.73146 8.57009 10.6553
1 8.73468 9.36187 9.87644
1 7.91784 8.56044 9.84737
1 9.52516 9.36379 10.6553
1 10.3189 8.57009 10.6553
1 10.3064 9.35495 9.85524
1 9.51473 8.57632 9.85196
1 11.1126 9.36379 10.6553
1 11.9063 8.57009 10.6553
1 11.9092 9.35466 9.85706
1 11.1027 8.60163 9.87231
1 12.7 9.36379 10.6553
1 13.4937 8.57009 10.6553
1 13.474 9.35544 9.87593
1 12.6953 8.56423 9.88351
1 14.2874 9.36379 10.6553
1 15.0811 8.57009 10.6553
1 15.0977 9.32418 9.85678
1 14.2867 8.57629 9.86072
1 15.8748 9.36379 10.6553
1 16.6685 8.57009 10.6553
1 16.6571 9.35638 9.86248
1 15.8764 8.54751 9.87985
1 17.4622 9.36379 10.6553
1 18.2559 8.57009 10.6553
1 18.2914 9.36723 9.85958
1 17.4714 8.59168 9.84753
1 19.0496 9.36379 10.6553
1 19.8433 8.57009 10.6553
1 19.8428 9.36902 9.87534
1 19.0497 8.55261 9.87586
1 20.637 9.36379 10.6553
1 21.4307 8.57009 10.6553
1 21.4424 9.37243 9.8684
1 20.647 8.58659 9.87271
1 22.2244 9.36379 10.6553
1 23.0181 8.57009 10.6553
1 23.0249 9.37172 9.86413
1 22.2325 8.56011 9.88327
1 23.8118 9.36379 10.6553
1 24.6055 8.57009 10.6553
1 24.5853 9.38212 9.87542
1 23.8048 8.57427 9.86002
1 25.3992 9.36379 10.6553
1 26.1929 8.57009 10.6553
1 26.1762 9.37003 9.85928
1 25.3863 8.56445 9.86137
1 26.9866 9.36379 10.6553
1 27.7803 8.57009 10.6553
1 27.7577 9.3742 9.87417
1 26.9657 8.58739 9.88353
1 28.574 9.36379 10.6553
1 29.3677 8.57009 10.6553
1 29.3085 9.33302 9.85226
1 28.5458 8.56484 9.88808
1 0.00075 7.77639 10.6553
1 0.794451 6.98268 10.6553
1 0.83272 7.75511 9.84028
1 0.0838929 6.99991 9.8359
1 1.58815 7.77639 10.6553
1 2.38185 6.98268 10.6553
1 2.40014 7.77237 9.85439
1 1.60634 7.00929 9.85351
1 3.17555 7.77639 10.6553
1 3.96925 6.98268 10.6553
1 4.00071 7.76964 9.85573
1 3.18579 6.98776 9.83077
1 4.76295 7.77639 10.6553
1 5.55665 6.98268 10.6553
1 5.57496 7.75738 9.86233
1 4.79176 6.98701 9.84577
1 6.35035 7.77639 10.6553
1 7.14405 6.98268 10.6553
1 7.1697 7.77382 9.84464
1 6.35476 6.98397 9.86078
1 7.93776 7.77639 10.6553
1 8.73146 6.98268 10.6553
1 8.72805 7.79051 9.86525
1 7.9315 6.99707 9.86347
1 9.52516 7.77639 10.6553
1 10.3189 6.98268 10.6553
1 10.3204 7.79391 9.87577
1 9.54165 6.985 9.87685
1 11.1126 7.77639 10.6553
1 11.9063 6.98268 10.6553
1 11.893 7.77891 9.87563
1 11.1206 6.9797 9.85064
1 12.7 7.77639 10.6553
1 13.4937 6.98268 10.6553
1 13.4903 7.77652 9.884
1 12.6826 6.95112 9.8478
1 14.2874 7.77639 10.6553
1 15.0811 6.98268 10.6553
1 15.0918 7.77214 9.83947
1 14.2934 6.97868 9.87731
1 15.8748 7.77639 10.6553
1 16.6685 6.98268 10.6553
1 16.6704 7.7747 9.85776
1 15.8886 7.00055 9.8649
1 17.4622 7.77639 10.6553
1 18.2559 6.98268 10.6553
1 18.281 7.77671 9.86208
1 17.4693 6.98782 9.87846
1 19.0496 7.77639 10.6553
1 19.8433 6.98268 10.6553
1 19.8459 7.78523 9.87144
1 19.0685 6.9949 9.86016
1 20.637 7.77639 10.6553
1 21.4307 6.98268 10.6553
1 21.4357 7.76727 9.88305
1 20.6289 7.0049 9.87531
1 22.2244 7.77639 10.6553
1 23.0181 6.98268 10.6553
1 23.0204 7.78865 9.8651
1 22.2497 6.9737 9.86512
1 23.8118 7.77639 10.6553
1 24.6055 6.98268 10.6553
1 24.6083 7.78273 9.86066
1 23.8354 6.99229 9.86279
1 25.3992 7.77639 10.6553
1 26.1929 6.98268 10.6553
1 26.1784 7.79827 9.86238
1 25.4059 6.9635 9.86649
1 26.9866 7.77639 10.6553
1 27.7803 6.98268 10.6553
1 27.7537 7.77469 9.85924
1 26.9669 6.9815 9.86141
1 28.574 7.77639 10.6553
1 29.3677 6.98268 10.6553
1 29.3066 7.77507 9.8378
1 28.552 6.98634 9.84673
1 0.00075 6.18898 10.6553
1 0.794451 5.39528 10.6553
1 0.839546 6.19628 9.85399
1 0.0584507 5.39124 9.83169
1 1.58815 6.18898 10.6553
1 2.38185 5.39528 10.6553
1 2.39637 6.16763 9.87102
1 1.58239 5.41454 9.86698
1 3.17555 6.18898 10.6553
1 3.96925 5.39528 10.6553
1 4.0037 6.20926 9.87165
1 3.18892 5.39961 9.88176
1 4.76295 6.18898 10.6553
1 5.55665 5.39528 10.6553
1 5.57017 6.19715 9.82645
1 4.77234 5.40004 9.88723
1 6.35035 6.18898 10.6553
1 7.14405 5.39528 10.6553