9376
Atoms. Timestep: 4000000
1 1.53125e-09 3.55271e-15 12.1012
1 0.793701 29.2063 12.1012
1 0.827167 29.9205 11.2272
1 0.0480706 29.1652 11.2822
1 1.5874 3.55271e-15 12.1012
1 2.3811 29.2063 12.1012
1 2.40557 29.9432 11.2722
1 1.61023 29.206 11.2737
1 3.1748 3.55271e-15 12.1012
1 3.9685 29.2063 12.1012
1 3.99786 29.9395 11.2701
1 3.18873 29.2177 11.3004
1 4.7622 3.55271e-15 12.1012
1 5.5559 29.2063 12.1012
1 5.56051 29.9252 11.2674
1 4.78029 29.1794 11.2965
1 6.3496 3.55271e-15 12.1012
1 7.1433 29.2063 12.1012
1 7.14344 29.9264 11.2718
1 6.36606 29.1939 11.2958
1 7.93701 3.55271e-15 12.1012
1 8.73071 29.2063 12.1012
1 8.71282 29.9432 11.2832
1 7.9537 29.1742 11.3083
1 9.52441 3.55271e-15 12.1012
1 10.3181 29.2063 12.1012
1 10.3158 29.933 11.293
1 9.5086 29.1653 11.3192
1 11.1118 3.55271e-15 12.1012
1 11.9055 29.2063 12.1012
1 11.9113 29.9228 11.2814
1 11.0956 29.1596 11.3229
1 12.6992 3.55271e-15 12.1012
1 13.4929 29.2063 12.1012
1 13.5011 29.9269 11.2723
1 12.7227 29.2091 11.3087
1 14.2866 3.55271e-15 12.1012
1 15.0803 29.2063 12.1012
1 15.0859 29.9633 11.2736
1 14.2863 29.1947 11.2874
1 15.874 3.55271e-15 12.1012
1 16.6677 29.2063 12.1012
1 16.6721 29.9081 11.2789
1 15.8678 29.1998 11.3053
1 17.4614 3.55271e-15 12.1012
1 18.2551 29.2063 12.1012
1 18.2852 29.9135 11.2595
1 17.4599 29.1703 11.2759
1 19.0488 3.55271e-15 12.1012
1 19.8425 29.2063 12.1012
1 19.8483 29.9056 11.2702
1 19.0628 29.1651 11.2986
1 20.6362 3.55271e-15 12.1012
1 21.4299 29.2063 12.1012
1 21.4326 29.9337 11.2559
1 20.6562 29.1484 11.3085
1 22.2236 3.55271e-15 12.1012
1 23.0173 29.2063 12.1012
1 23.0211 29.9402 11.2695
1 22.2026 29.1664 11.3055
1 23.811 3.55271e-15 12.1012
1 24.6047 29.2063 12.1012
1 24.6108 29.9437 11.2862
1 23.8163 29.1827 11.2866
1 25.3984 3.55271e-15 12.1012
1 26.1921 29.2063 12.1012
1 26.1909 29.8995 11.2868
1 25.3993 29.1525 11.3297
1 26.9858 3.55271e-15 12.1012
1 27.7795 29.2063 12.1012
1 27.7854 29.9225 11.266
1 26.9995 29.1677 11.2867
1 28.5732 3.55271e-15 12.1012
1 29.3669 29.2063 12.1012
1 29.2769 29.947 11.23
1 28.5399 29.1812 11.2904
1 1.53125e-09 28.4126 12.1012
1 0.793701 27.6189 12.1012
1 0.835874 28.4036 11.2817
1 0.0806783 27.6189 11.2685
1 1.5874 28.4126 12.1012
1 2.3811 27.6189 12.1012
1 2.38503 28.4264 11.299
1 1.61075 27.6094 11.2973
1 3.1748 28.4126 12.1012
1 3.9685 27.6189 12.1012
1 3.98575 28.4176 11.3131
1 3.18879 27.6149 11.3027
1 4.7622 28.4126 12.1012
1 5.5559 27.6189 12.1012
1 5.56444 28.3895 11.3121
1 4.73532 27.6285 11.3206
1 6.3496 28.4126 12.1012
1 7.1433 27.6189 12.1012
1 7.14724 28.3848 11.3093
1 6.3861 27.589 11.3175
1 7.93701 28.4126 12.1012
1 8.73071 27.6189 12.1012
1 8.71474 28.4006 11.3053
1 7.91677 27.6064 11.2746
1 9.52441 28.4126 12.1012
1 10.3181 27.6189 12.1012
1 10.2819 28.3758 11.2955
1 9.49198 27.5969 11.3028
1 11.1118 28.4126 12.1012
1 11.9055 27.6189 12.1012
1 11.9282 28.4132 11.3244
1 11.1174 27.5963 11.2996
1 12.6992 28.4126 12.1012
1 13.4929 27.6189 12.1012
1 13.5032 28.3827 11.2872
1 12.7043 27.6088 11.2921
1 14.2866 28.4126 12.1012
1 15.0803 27.6189 12.1012
1 15.0791 28.3944 11.3331
1 14.2754 27.5747 11.3381
1 15.874 28.4126 12.1012
1 16.6677 27.6189 12.1012
1 16.6702 28.4179 11.2935
1 15.8897 27.5971 11.3122
1 17.4614 28.4126 12.1012
1 18.2551 27.6189 12.1012
1 18.2536 28.389 11.3161
1 17.4541 27.5979 11.2787
1 19.0488 28.4126 12.1012
1 19.8425 27.6189 12.1012
1 19.8536 28.4004 11.3011
1 19.0717 27.6181 11.3008
1 20.6362 28.4126 12.1012
1 21.4299 27.6189 12.1012
1 21.432 28.387 11.2806
1 20.639 27.5847 11.2889
1 22.2236 28.4126 12.1012
1 23.0173 27.6189 12.1012
1 22.9849 28.3929 11.2784
1 22.2114 27.5813 11.2805
1 23.811 28.4126 12.1012
1 24.6047 27.6189 12.1012
1 24.5997 28.396 11.3306
1 23.7927 27.5936 11.2878
1 25.3984 28.4126 12.1012
1 26.1921 27.6189 12.1012
1 26.2073 28.3983 11.3212
1 25.4016 27.6222 11.3277
1 26.9858 28.4126 12.1012
1 27.7795 27.6189 12.1012
1 27.7805 28.3935 11.3176
1 26.9853 27.5922 11.3158
1 28.5732 28.4126 12.1012
1 29.3669 27.6189 12.1012
1 29.314 28.3912 11.2712
1 28.5676 27.6164 11.301
1 1.53125e-09 26.8252 12.1012
1 0.793701 26.0315 12.1012
1 0.829508 26.8079 11.3022
1 0.0830801 26.0193 11.2852
1 1.5874 26.8252 12.1012
1 2.3811 26.0315 12.1012
1 2.40056 26.821 11.3149
1 1.59984 26.0448 11.2895
1 3.1748 26.8252 12.1012
1 3.9685 26.0315 12.1012
1 3.95755 26.8384 11.3083
1 3.18436 26.032 11.2862
1 4.7622 26.8252 12.1012
1 5.5559 26.0315 12.1012
1 5.54251 26.8477 11.3107
1 4.75924 26.0644 11.3072
1 6.3496 26.8252 12.1012
1 7.1433 26.0315 12.1012
1 7.1575 26.797 11.3002
1 6.35126 26.0264 11.2931
1 7.93701 26.8252 12.1012
1 8.73071 26.0315 12.1012
1 8.70972 26.8174 11.2856
1 7.93708 26.0329 11.292
1 9.52441 26.8252 12.1012
1 10.3181 26.0315 12.1012
1 10.3227 26.8421 11.3126
1 9.52104 26.0572 11.3345
1 11.1118 26.8252 12.1012
1 11.9055 26.0315 12.1012
1 11.9127 26.8191 11.3278
1 11.0975 26.0219 11.312
1 12.6992 26.8252 12.1012
1 13.4929 26.0315 12.1012
1 13.4732 26.8183 11.3184
1 12.6751 26.0265 11.3195
1 14.2866 26.8252 12.1012
1 15.0803 26.0315 12.1012
1 15.0851 26.8088 11.339
1 14.2413 25.9976 11.3129
1 15.874 26.8252 12.1012
1 16.6677 26.0315 12.1012
1 16.6726 26.7983 11.3146
1 15.8679 26.0324 11.3099
1 17.4614 26.8252 12.1012
1 18.2551 26.0315 12.1012
1 18.2685 26.8294 11.268
1 17.4722 26.0305 11.2888
1 19.0488 26.8252 12.1012
1 19.8425 26.0315 12.1012
1 19.866 26.811 11.3206
1 19.041 26.0089 11.3105
1 20.6362 26.8252 12.1012
1 21.4299 26.0315 12.1012
1 21.4193 26.8124 11.2926
1 20.653 25.9969 11.2936
1 22.2236 26.8252 12.1012
1 23.0173 26.0315 12.1012
1 23.0091 26.8103 11.2967
1 22.2173 26.0314 11.3236
1 23.811 26.8252 12.1012
1 24.6047 26.0315 12.1012
1 24.5983 26.8276 11.2955
1 23.8126 26.0229 11.3255
1 25.3984 26.8252 12.1012
1 26.1921 26.0315 12.1012
1 26.1725 26.822 11.3177
1 25.3724 26.0338 11.3037
1 26.9858 26.8252 12.1012
1 27.7795 26.0315 12.1012
1 27.7773 26.8177 11.3099
1 26.9611 26.0368 11.3097
1 28.5732 26.8252 12.1012
1 29.3669 26.0315 12.1012
1 29.329 26.7934 11.261
1 28.5555 26.0247 11.2953
1 1.53125e-09 25.2378 12.1012
1 0.793701 24.4441 12.1012
1 0.822203 25.2175 11.2887
1 0.0544213 24.4408 11.272
1 1.5874 25.2378 12.1012
1 2.3811 24.4441 12.1012
1 2.38421 25.2366 11.3131
1 1.61841 24.4185 11.3294
1 3.1748 25.2378 12.1012
1 3.9685 24.4441 12.1012
1 3.96303 25.2447 11.3108
1 3.19164 24.4291 11.2933
1 4.7622 25.2378 12.1012
1 5.5559 24.4441 12.1012
1 5.52447 25.232 11.3151
1 4.75817 24.4309 11.301
1 6.3496 25.2378 12.1012
1 7.1433 24.4441 12.1012
1 7.13709 25.2591 11.327
1 6.33089 24.4437 11.3105
1 7.93701 25.2378 12.1012
1 8.73071 24.4441 12.1012
1 8.74271 25.2504 11.31
1 7.92278 24.4644 11.3042
1 9.52441 25.2378 12.1012
1 10.3181 24.4441 12.1012
1 10.2898 25.2259 11.2911
1 9.53194 24.4562 11.3067
1 11.1118 25.2378 12.1012
1 11.9055 24.4441 12.1012
1 11.8948 25.2376 11.3249
1 11.1014 24.4388 11.3108
1 12.6992 25.2378 12.1012
1 13.4929 24.4441 12.1012
1 13.4685 25.2304 11.3249
1 12.6574 24.4187 11.3052
1 14.2866 25.2378 12.1012
1 15.0803 24.4441 12.1012
1 15.0754 25.2581 11.3259
1 14.2834 24.4465 11.3042
1 15.874 25.2378 12.1012
1 16.6677 24.4441 12.1012
1 16.6639 25.2426 11.3139
1 15.8601 24.4428 11.2851
1 17.4614 25.2378 12.1012
1 18.2551 24.4441 12.1012
1 18.2636 25.2199 11.3077
1 17.4509 24.4546 11.3189
1 19.0488 25.2378 12.1012
1 19.8425 24.4441 12.1012
1 19.8355 25.2313 11.299
1 19.0629 24.421 11.3075
1 20.6362 25.2378 12.1012
1 21.4299 24.4441 12.1012
1 21.4345 25.2208 11.3068
1 20.651 24.4226 11.301
1 22.2236 25.2378 12.1012
1 23.0173 24.4441 12.1012
1 23.0044 25.2277 11.3195
1 22.2367 24.444 11.329
1 23.811 25.2378 12.1012
1 24.6047 24.4441 12.1012
1 24.616 25.2196 11.3292
1 23.8127 24.4367 11.3104
1 25.3984 25.2378 12.1012
1 26.1921 24.4441 12.1012
1 26.1865 25.2348 11.3061
1 25.3771 24.4196 11.3105
1 26.9858 25.2378 12.1012
1 27.7795 24.4441 12.1012
1 27.7789 25.2287 11.3251
1 26.9786 24.4095 11.3034
1 28.5732 25.2378 12.1012
1 29.3669 24.4441 12.1012
1 29.3144 25.2425 11.2657
1 28.5368 24.4519 11.3099
1 1.53125e-09 23.6504 12.1012
1 0.793701 22.8567 12.1012
1 0.833965 23.6441 11.2991
1 0.0627423 22.8534 11.2775
1 1.5874 23.6504 12.1012
1 2.3811 22.8567 12.1012
1 2.40172 23.6539 11.3125
1 1.59495 22.8424 11.3096
1 3.1748 23.6504 12.1012
1 3.9685 22.8567 12.1012
1 3.98841 23.6456 11.3105
1 3.20331 22.862 11.2993
1 4.7622 23.6504 12.1012
1 5.5559 22.8567 12.1012
1 5.5412 23.6357 11.3088
1 4.76786 22.8489 11.3271
1 6.3496 23.6504 12.1012
1 7.1433 22.8567 12.1012
1 7.12159 23.6616 11.2825
1 6.33878 22.8635 11.3231
1 7.93701 23.6504 12.1012
1 8.73071 22.8567 12.1012
1 8.7344 23.6648 11.3088
1 7.92103 22.8457 11.3306
1 9.52441 23.6504 12.1012
1 10.3181 22.8567 12.1012
1 10.309 23.6463 11.31
1 9.52272 22.8434 11.3367
1 11.1118 23.6504 12.1012
1 11.9055 22.8567 12.1012
1 11.894 23.6381 11.2979
1 11.1107 22.8491 11.3031
1 12.6992 23.6504 12.1012
1 13.4929 22.8567 12.1012
1 13.4766 23.657 11.3213
1 12.6914 22.8506 11.3216
1 14.2866 23.6504 12.1012
1 15.0803 22.8567 12.1012
1 15.0703 23.6457 11.3159
1 14.2746 22.8833 11.3178
1 15.874 23.6504 12.1012
1 16.6677 22.8567 12.1012
1 16.65 23.6573 11.3042
1 15.9138 22.856 11.3046
1 17.4614 23.6504 12.1012
1 18.2551 22.8567 12.1012
1 18.2338 23.6633 11.3182
1 17.4681 22.8502 11.3355
1 19.0488 23.6504 12.1012
1 19.8425 22.8567 12.1012
1 19.8564 23.6552 11.3133
1 19.0605 22.8795 11.3192
1 20.6362 23.6504 12.1012
1 21.4299 22.8567 12.1012
1 21.4578 23.6387 11.3348
1 20.6445 22.8531 11.3122
1 22.2236 23.6504 12.1012
1 23.0173 22.8567 12.1012
1 23.0015 23.633 11.304
1 22.2392 22.8658 11.3171
1 23.811 23.6504 12.1012
1 24.6047 22.8567 12.1012
1 24.5796 23.6437 11.2934
1 23.796 22.8658 11.3166
1 25.3984 23.6504 12.1012
1 26.1921 22.8567 12.1012
1 26.2122 23.6577 11.305
1 25.3778 22.8355 11.3246
1 26.9858 23.6504 12.1012
1 27.7795 22.8567 12.1012
1 27.7676 23.6306 11.2984
1 26.9766 22.8404 11.3072
1 28.5732 23.6504 12.1012
1 29.3669 22.8567 12.1012
1 29.3086 23.6788 11.2613
1 28.5469 22.832 11.2986
1 1.53125e-09 22.063 12.1012
1 0.793701 21.2693 12.1012
1 0.829203 22.0609 11.3154
1 0.0785086 21.2579 11.2575
1 1.5874 22.063 12.1012
1 2.3811 21.2693 12.1012
1 2.37763 22.075 11.3439
1 1.5771 21.2696 11.3235
1 3.1748 22.063 12.1012
1 3.9685 21.2693 12.1012
1 3.96559 22.069 11.2941
1 3.18895 21.3015 11.316
1 4.7622 22.063 12.1012
1 5.5559 21.2693 12.1012
1 5.56205 22.0727 11.3054
1 4.75431 21.2905 11.2965
1 6.3496 22.063 12.1012
1 7.1433 21.2693 12.1012
1 7.15124 22.0527 11.3032
1 6.3201 21.2823 11.2923
1 7.93701 22.063 12.1012
1 8.73071 21.2693 12.1012
1 8.70992 22.0523 11.3151
1 7.92529 21.2573 11.3003
1 9.52441 22.063 12.1012
1 10.3181 21.2693 12.1012
1 10.308 22.0625 11.3101
1 9.52588 21.2455 11.3205
1 11.1118 22.063 12.1012
1 11.9055 21.2693 12.1012
1 11.89 22.0534 11.3175
1 11.0793 21.2513 11.2969
1 12.6992 22.063 12.1012
1 13.4929 21.2693 12.1012
1 13.4766 22.0521 11.3349
1 12.6869 21.2661 11.3266
1 14.2866 22.063 12.1012
1 15.0803 21.2693 12.1012
1 15.0893 22.0606 11.2997
1 14.2987 21.2491 11.3031
1 15.874 22.063 12.1012
1 16.6677 21.2693 12.1012
1 16.6559 22.0552 11.3203
1 15.8605 21.2668 11.332
1 17.4614 22.063 12.1012
1 18.2551 21.2693 12.1012
1 18.2704 22.0479 11.3218
1 17.4558 21.2736 11.3308
1 19.0488 22.063 12.1012
1 19.8425 21.2693 12.1012
1 19.8618 22.0626 11.3218
1 19.0234 21.2716 11.3105
1 20.6362 22.063 12.1012
1 21.4299 21.2693 12.1012
1 21.4431 22.0649 11.2972
1 20.6292 21.2466 11.348
1 22.2236 22.063 12.1012
1 23.0173 21.2693 12.1012
1 23.0265 22.0583 11.2988
1 22.2397 21.2603 11.333
1 23.811 22.063 12.1012
1 24.6047 21.2693 12.1012
1 24.5863 22.094 11.3204
1 23.7887 21.2506 11.3127
1 25.3984 22.063 12.1012
1 26.1921 21.2693 12.1012
1 26.1907 22.0772 11.3063
1 25.4115 21.2846 11.3218
1 26.9858 22.063 12.1012
1 27.7795 21.2693 12.1012
1 27.7732 22.0819 11.2909
1 26.9805 21.2797 11.2904
1 28.5732 22.063 12.1012
1 29.3669 21.2693 12.1012
1 29.2873 22.046 11.2755
1 28.5489 21.2781 11.3077
1 1.53125e-09 20.4756 12.1012
1 0.793701 19.6819 12.1012
1 0.819807 20.4734 11.305
1 0.0799241 19.6998 11.272
1 1.5874 20.4756 12.1012
1 2.3811 19.6819 12.1012
1 2.37615 20.4892 11.306
1 1.57269 19.6897 11.3039
1 3.1748 20.4756 12.1012
1 3.9685 19.6819 12.1012
1 3.98497 20.4926 11.3175
1 3.18677 19.7019 11.3117
1 4.7622 20.4756 12.1012
1 5.5559 19.6819 12.1012
1 5.53929 20.4861 11.2991
1 4.75427 19.6959 11.2978
1 6.3496 20.4756 12.1012
1 7.1433 19.6819 12.1012
1 7.15944 20.4656 11.3145
1 6.36391 19.6569 11.3021
1 7.93701 20.4756 12.1012
1 8.73071 19.6819 12.1012
1 8.71817 20.4742 11.3211
1 7.93848 19.6691 11.3036
1 9.52441 20.4756 12.1012
1 10.3181 19.6819 12.1012
1 10.3283 20.4866 11.3106
1 9.54067 19.6841 11.2965
1 11.1118 20.4756 12.1012
1 11.9055 19.6819 12.1012
1 11.9033 20.4944 11.3217
1 11.1241 19.6666 11.3317
1 12.6992 20.4756 12.1012
1 13.4929 19.6819 12.1012
1 13.4859 20.4927 11.3101
1 12.7141 19.6942 11.3156
1 14.2866 20.4756 12.1012
1 15.0803 19.6819 12.1012
1 15.0628 20.4639 11.3164
1 14.2625 19.6826 11.3029
1 15.874 20.4756 12.1012
1 16.6677 19.6819 12.1012
1 16.6633 20.4909 11.3035
1 15.888 19.6884 11.3017
1 17.4614 20.4756 12.1012
1 18.2551 19.6819 12.1012
1 18.2565 20.484 11.3045
1 17.4498 19.6759 11.3094
1 19.0488 20.4756 12.1012
1 19.8425 19.6819 12.1012
1 19.8451 20.4701 11.3465
1 19.0464 19.691 11.3005
1 20.6362 20.4756 12.1012
1 21.4299 19.6819 12.1012
1 21.4123 20.4657 11.3109
1 20.6334 19.6766 11.3178
1 22.2236 20.4756 12.1012
1 23.0173 19.6819 12.1012
1 22.9973 20.4705 11.3017
1 22.2011 19.6873 11.3181
1 23.811 20.4756 12.1012
1 24.6047 19.6819 12.1012
1 24.6082 20.4637 11.3111
1 23.8187 19.6745 11.2931
1 25.3984 20.4756 12.1012
1 26.1921 19.6819 12.1012
1 26.1967 20.4945 11.3175
1 25.3973 19.6823 11.3173
1 26.9858 20.4756 12.1012
1 27.7795 19.6819 12.1012
1 27.765 20.5058 11.3191
1 26.9504 19.7067 11.3065
1 28.5732 20.4756 12.1012
1 29.3669 19.6819 12.1012
1 29.308 20.4654 11.2774
1 28.5144 19.683 11.3327
1 1.53125e-09 18.8882 12.1012
1 0.793701 18.0945 12.1012
1 0.821208 18.8877 11.3287
1 0.0637677 18.1141 11.2791
1 1.5874 18.8882 12.1012
1 2.3811 18.0945 12.1012
1 2.37749 18.8801 11.3216
1 1.59995 18.0679 11.3375
1 3.1748 18.8882 12.1012
1 3.9685 18.0945 12.1012
1 3.97326 18.89 11.3161
1 3.16971 18.1181 11.3098
1 4.7622 18.8882 12.1012
1 5.5559 18.0945 12.1012
1 5.5555 18.8755 11.3078
1 4.7604 18.1139 11.295
1 6.3496 18.8882 12.1012
1 7.1433 18.0945 12.1012
1 7.17618 18.8755 11.3076
1 6.36535 18.1155 11.3119
1 7.93701 18.8882 12.1012
1 8.73071 18.0945 12.1012
1 8.71108 18.8655 11.2941
1 7.93409 18.0783 11.3096
1 9.52441 18.8882 12.1012
1 10.3181 18.0945 12.1012
1 10.3077 18.9059 11.3005
1 9.52555 18.1077 11.3203
1 11.1118 18.8882 12.1012
1 11.9055 18.0945 12.1012
1 11.9141 18.8751 11.3061
1 11.1038 18.1015 11.2934
1 12.6992 18.8882 12.1012
1 13.4929 18.0945 12.1012
1 13.5074 18.8942 11.2835
1 12.7069 18.083 11.3046
1 14.2866 18.8882 12.1012
1 15.0803 18.0945 12.1012
1 15.086 18.8982 11.3113
1 14.31 18.0921 11.3276
1 15.874 18.8882 12.1012
1 16.6677 18.0945 12.1012
1 16.6604 18.8958 11.3088
1 15.8751 18.0812 11.3031
1 17.4614 18.8882 12.1012
1 18.2551 18.0945 12.1012
1 18.2456 18.9082 11.3025
1 17.476 18.0908 11.2913
1 19.0488 18.8882 12.1012
1 19.8425 18.0945 12.1012
1 19.8328 18.8968 11.3069
1 19.0234 18.1128 11.3223
1 20.6362 18.8882 12.1012
1 21.4299 18.0945 12.1012
1 21.4248 18.8956 11.3026
1 20.6146 18.1047 11.309
1 22.2236 18.8882 12.1012
1 23.0173 18.0945 12.1012
1 23.0215 18.8936 11.3222
1 22.2323 18.0737 11.3136
1 23.811 18.8882 12.1012
1 24.6047 18.0945 12.1012
1 24.5998 18.892 11.3147
1 23.8151 18.1026 11.2927
1 25.3984 18.8882 12.1012
1 26.1921 18.0945 12.1012
1 26.1869 18.882 11.3027
1 25.415 18.0802 11.3262
1 26.9858 18.8882 12.1012
1 27.7795 18.0945 12.1012
1 27.7415 18.8963 11.3044
1 26.974 18.0839 11.3038
1 28.5732 18.8882 12.1012
1 29.3669 18.0945 12.1012
1 29.3021 18.9115 11.2615
1 28.5458 18.1039 11.3029
1 1.53125e-09 17.3008 12.1012
1 0.793701 16.5071 12.1012
1 0.834895 17.2638 11.3098
1 0.0668205 16.5109 11.284
1 1.5874 17.3008 12.1012
1 2.3811 16.5071 12.1012
1 2.38508 17.2848 11.3327
1 1.58038 16.4958 11.3051
1 3.1748 17.3008 12.1012
1 3.9685 16.5071 12.1012
1 3.96959 17.3373 11.3348
1 3.17684 16.5066 11.3325
1 4.7622 17.3008 12.1012
1 5.5559 16.5071 12.1012
1 5.57693 17.3152 11.3016
1 4.79216 16.4784 11.2964
1 6.3496 17.3008 12.1012
1 7.1433 16.5071 12.1012
1 7.12802 17.3295 11.2946
1 6.33925 16.5013 11.3039
1 7.93701 17.3008 12.1012
1 8.73071 16.5071 12.1012
1 8.72718 17.3424 11.337
1 7.92357 16.5374 11.3053
1 9.52441 17.3008 12.1012
1 10.3181 16.5071 12.1012
1 10.3004 17.3119 11.3005
1 9.4906 16.503 11.3284
1 11.1118 17.3008 12.1012
1 11.9055 16.5071 12.1012
1 11.8868 17.3278 11.3058
1 11.1033 16.5042 11.2959
1 12.6992 17.3008 12.1012
1 13.4929 16.5071 12.1012
1 13.4902 17.3155 11.3151
1 12.7011 16.5466 11.3065
1 14.2866 17.3008 12.1012
1 15.0803 16.5071 12.1012
1 15.0711 17.3106 11.2805
1 14.2759 16.5148 11.3085
1 15.874 17.3008 12.1012
1 16.6677 16.5071 12.1012
1 16.6475 17.2921 11.2912
1 15.8861 16.5121 11.2909
1 17.4614 17.3008 12.1012
1 18.2551 16.5071 12.1012
1 18.2643 17.3272 11.2957
1 17.4482 16.4985 11.3254
1 19.0488 17.3008 12.1012
1 19.8425 16.5071 12.1012
1 19.8131 17.2977 11.3076
1 19.0503 16.4773 11.2859
1 20.6362 17.3008 12.1012
1 21.4299 16.5071 12.1012
1 21.4066 17.3041 11.314
1 20.6354 16.4963 11.2956
1 22.2236 17.3008 12.1012
1 23.0173 16.5071 12.1012
1 23.0258 17.283 11.3053
1 22.2331 16.49 11.2926
1 23.811 17.3008 12.1012
1 24.6047 16.5071 12.1012
1 24.6158 17.3045 11.3013
1 23.8343 16.5002 11.3153
1 25.3984 17.3008 12.1012
1 26.1921 16.5071 12.1012
1 26.1979 17.3066 11.2964
1 25.3983 16.4955 11.32
1 26.9858 17.3008 12.1012
1 27.7795 16.5071 12.1012
1 27.7851 17.2982 11.3159
1 26.9466 16.4907 11.2936
1 28.5732 17.3008 12.1012
1 29.3669 16.5071 12.1012
1 29.3167 17.2764 11.2656
1 28.5477 16.5063 11.3171
1 1.53125e-09 15.7134 12.1012
1 0.793701 14.9197 12.1012
1 0.809408 15.6978 11.3116
1 0.0799651 14.9101 11.2833
1 1.5874 15.7134 12.1012
1 2.3811 14.9197 12.1012
1 2.38438 15.7056 11.2837
1 1.59939 14.917 11.2998
1 3.1748 15.7134 12.1012
1 3.9685 14.9197 12.1012
1 3.9843 15.7364 11.2958
1 3.19167 14.9209 11.3169
1 4.7622 15.7134 12.1012
1 5.5559 14.9197 12.1012
1 5.56422 15.7353 11.3019
1 4.77632 14.9584 11.3234
1 6.3496 15.7134 12.1012
1 7.1433 14.9197 12.1012
1 7.14547 15.7125 11.3259
1 6.35561 14.9217 11.3161
1 7.93701 15.7134 12.1012
1 8.73071 14.9197 12.1012
1 8.7314 15.7118 11.3116
1 7.93788 14.9256 11.3258
1 9.52441 15.7134 12.1012
1 10.3181 14.9197 12.1012
1 10.3118 15.7049 11.2924
1 9.52197 14.9034 11.3006
1 11.1118 15.7134 12.1012
1 11.9055 14.9197 12.1012
1 11.9148 15.7353 11.2842
1 11.1254 14.9034 11.3193
1 12.6992 15.7134 12.1012
1 13.4929 14.9197 12.1012
1 13.4695 15.7103 11.2992
1 12.6755 14.9337 11.3059
1 14.2866 15.7134 12.1012
1 15.0803 14.9197 12.1012
1 15.0904 15.7364 11.3098
1 14.276 14.9333 11.342
1 15.874 15.7134 12.1012
1 16.6677 14.9197 12.1012
1 16.6555 15.7284 11.3263
1 15.8661 14.9122 11.3268
1 17.4614 15.7134 12.1012
1 18.2551 14.9197 12.1012
1 18.2733 15.6985 11.3009
1 17.4678 14.9454 11.2995
1 19.0488 15.7134 12.1012
1 19.8425 14.9197 12.1012
1 19.8493 15.7041 11.2993
1 19.0775 14.9108 11.2981
1 20.6362 15.7134 12.1012
1 21.4299 14.9197 12.1012
1 21.4385 15.6876 11.2915
1 20.6244 14.9162 11.3307
1 22.2236 15.7134 12.1012
1 23.0173 14.9197 12.1012
1 23.008 15.7199 11.2982
1 22.205 14.8995 11.3057
1 23.811 15.7134 12.1012
1 24.6047 14.9197 12.1012
1 24.5717 15.6991 11.3093
1 23.8004 14.9369 11.3277
1 25.3984 15.7134 12.1012
1 26.1921 14.9197 12.1012
1 26.1818 15.7257 11.3474
1 25.3715 14.9166 11.3088
1 26.9858 15.7134 12.1012
1 27.7795 14.9197 12.1012
1 27.7437 15.7079 11.2948
1 26.984 14.9078 11.3035
1 28.5732 15.7134 12.1012
1 29.3669 14.9197 12.1012
1 29.3004 15.6974 11.2929
1 28.5413 14.9094 11.3
1 1.53125e-09 14.126 12.1012
1 0.793701 13.3323 12.1012
1 0.827129 14.1184 11.3292
1 0.085351 13.3035 11.2553
1 1.5874 14.126 12.1012
1 2.3811 13.3323 12.1012
1 2.3908 14.1258 11.2877
1 1.57613 13.3273 11.283
1 3.1748 14.126 12.1012
1 3.9685 13.3323 12.1012
1 3.96607 14.1222 11.3066
1 3.19014 13.3359 11.3008
1 4.7622 14.126 12.1012
1 5.5559 13.3323 12.1012
1 5.55589 14.1335 11.2858
1 4.78776 13.3349 11.3081
1 6.3496 14.126 12.1012
1 7.1433 13.3323 12.1012
1 7.14193 14.1146 11.3048
1 6.37926 13.3627 11.3216
1 7.93701 14.126 12.1012
1 8.73071 13.3323 12.1012
1 8.73204 14.0968 11.3089
1 7.94822 13.3459 11.3294
1 9.52441 14.126 12.1012
1 10.3181 13.3323 12.1012
1 10.3564 14.1202 11.3003
1 9.52187 13.3257 11.3016
1 11.1118 14.126 12.1012
1 11.9055 13.3323 12.1012
1 11.9234 14.1378 11.3123
1 11.1021 13.3403 11.2975
1 12.6992 14.126 12.1012
1 13.4929 13.3323 12.1012
1 13.4847 14.1217 11.327
1 12.7089 13.3266 11.301
1 14.2866 14.126 12.1012
1 15.0803 13.3323 12.1012
1 15.1019 14.1331 11.3246
1 14.3033 13.3503 11.2834
1 15.874 14.126 12.1012
1 16.6677 13.3323 12.1012
1 16.65 14.1516 11.2994
1 15.8884 13.3236 11.3052
1 17.4614 14.126 12.1012
1 18.2551 13.3323 12.1012
1 18.2485 14.1227 11.3097
1 17.4635 13.3343 11.3276
1 19.0488 14.126 12.1012
1 19.8425 13.3323 12.1012
1 19.8467 14.0949 11.3412
1 19.0503 13.328 11.3089
1 20.6362 14.126 12.1012
1 21.4299 13.3323 12.1012
1 21.4283 14.1256 11.3388
1 20.6717 13.3383 11.3113
1 22.2236 14.126 12.1012
1 23.0173 13.3323 12.1012
1 23.0092 14.1464 11.3209
1 22.2042 13.3108 11.2933
1 23.811 14.126 12.1012
1 24.6047 13.3323 12.1012
1 24.6016 14.1183 11.3187
1 23.8268 13.3396 11.3185
1 25.3984 14.126 12.1012
1 26.1921 13.3323 12.1012
1 26.1845 14.1139 11.2944
1 25.3869 13.3302 11.323
1 26.9858 14.126 12.1012
1 27.7795 13.3323 12.1012
1 27.7865 14.1095 11.2999
1 26.978 13.3353 11.3057
1 28.5732 14.126 12.1012
1 29.3669 13.3323 12.1012
1 29.3264 14.1071 11.2682
1 28.5617 13.3266 11.2814
1 1.53125e-09 12.5386 12.1012
1 0.793701 11.7449 12.1012
1 0.816519 12.4907 11.3152
1 0.0501634 11.7473 11.2581
1 1.5874 12.5386 12.1012
1 2.3811 11.7449 12.1012
1 2.39725 12.5518 11.313
1 1.65182 11.7525 11.3103
1 3.1748 12.5386 12.1012
1 3.9685 11.7449 12.1012
1 3.96293 12.5357 11.3182
1 3.16635 11.7321 11.3361
1 4.7622 12.5386 12.1012
1 5.5559 11.7449 12.1012
1 5.55416 12.5474 11.3245
1 4.76015 11.741 11.3115
1 6.3496 12.5386 12.1012
1 7.1433 11.7449 12.1012
1 7.14899 12.5278 11.2995
1 6.37945 11.7478 11.3213
1 7.93701 12.5386 12.1012
1 8.73071 11.7449 12.1012
1 8.72852 12.5413 11.2903
1 7.96239 11.7377 11.3128
1 9.52441 12.5386 12.1012
1 10.3181 11.7449 12.1012
1 10.3044 12.5311 11.2986
1 9.52572 11.7389 11.308
1 11.1118 12.5386 12.1012
1 11.9055 11.7449 12.1012
1 11.9039 12.558 11.2975
1 11.1108 11.7497 11.3222
1 12.6992 12.5386 12.1012
1 13.4929 11.7449 12.1012
1 13.4945 12.5202 11.2806
1 12.6924 11.7727 11.2751
1 14.2866 12.5386 12.1012
1 15.0803 11.7449 12.1012
1 15.0903 12.5182 11.3215
1 14.2656 11.73 11.3229
1 15.874 12.5386 12.1012
1 16.6677 11.7449 12.1012
1 16.6781 12.5336 11.3066
1 15.8706 11.7404 11.3032
1 17.4614 12.5386 12.1012
1 18.2551 11.7449 12.1012
1 18.2653 12.5476 11.2942
1 17.4634 11.7227 11.2944
1 19.0488 12.5386 12.1012
1 19.8425 11.7449 12.1012
1 19.8382 12.5356 11.3053
1 19.0535 11.7168 11.281
1 20.6362 12.5386 12.1012
1 21.4299 11.7449 12.1012
1 21.432 12.5347 11.2703
1 20.6511 11.7567 11.3082
1 22.2236 12.5386 12.1012
1 23.0173 11.7449 12.1012
1 23.0227 12.54 11.2963
1 22.2182 11.738 11.2897
1 23.811 12.5386 12.1012
1 24.6047 11.7449 12.1012
1 24.5917 12.5436 11.305
1 23.8105 11.7255 11.3261
1 25.3984 12.5386 12.1012
1 26.1921 11.7449 12.1012
1 26.192 12.5417 11.3203
1 25.3976 11.7379 11.3058
1 26.9858 12.5386 12.1012
1 27.7795 11.7449 12.1012
1 27.7868 12.544 11.2885
1 27.0085 11.7498 11.3008
1 28.5732 12.5386 12.1012
1 29.3669 11.7449 12.1012
1 29.2884 12.539 11.2909
1 28.5383 11.7255 11.2684
1 1.53125e-09 10.9512 12.1012
1 0.793701 10.1575 12.1012
1 0.844607 10.9536 11.3067
1 0.0695709 10.1573 11.2706
1 1.5874 10.9512 12.1012
1 2.3811 10.1575 12.1012
1 2.38795 10.9418 11.3165
1 1.60482 10.1327 11.3011
1 3.1748 10.9512 12.1012
1 3.9685 10.1575 12.1012
1 3.9602 10.941 11.3305
1 3.1822 10.1316 11.3015
1 4.7622 10.9512 12.1012
1 5.5559 10.1575 12.1012
1 5.58803 10.9514 11.303
1 4.7511 10.1551 11.3018
1 6.3496 10.9512 12.1012
1 7.1433 10.1575 12.1012
1 7.13886 10.9343 11.3227
1 6.3463 10.1571 11.3076
1 7.93701 10.9512 12.1012
1 8.73071 10.1575 12.1012
1 8.77088 10.9374 11.3063
1 7.94683 10.1711 11.3133
1 9.52441 10.9512 12.1012
1 10.3181 10.1575 12.1012
1 10.3125 10.9416 11.2859
1 9.53661 10.1588 11.3305
1 11.1118 10.9512 12.1012
1 11.9055 10.1575 12.1012
1 11.9126 10.9681 11.3173
1 11.1102 10.1554 11.3134
1 12.6992 10.9512 12.1012
1 13.4929 10.1575 12.1012
1 13.4693 10.9648 11.3092
1 12.7252 10.1331 11.2832
1 14.2866 10.9512 12.1012
1 15.0803 10.1575 12.1012
1 15.0757 10.9283 11.3077
1 14.2833 10.1371 11.3062
1 15.874 10.9512 12.1012
1 16.6677 10.1575 12.1012
1 16.6712 10.9546 11.3156
1 15.9169 10.1676 11.3369
1 17.4614 10.9512 12.1012
1 18.2551 10.1575 12.1012
1 18.2522 10.9258 11.3193
1 17.4424 10.1478 11.2945
1 19.0488 10.9512 12.1012
1 19.8425 10.1575 12.1012
1 19.8683 10.9289 11.3121
1 19.0862 10.1378 11.3075
1 20.6362 10.9512 12.1012
1 21.4299 10.1575 12.1012
1 21.4396 10.9518 11.2935
1 20.6455 10.1437 11.3137
1 22.2236 10.9512 12.1012
1 23.0173 10.1575 12.1012
1 23.0181 10.965 11.2885
1 22.2052 10.1835 11.315
1 23.811 10.9512 12.1012
1 24.6047 10.1575 12.1012
1 24.597 10.9361 11.314
1 23.7767 10.1547 11.3082
1 25.3984 10.9512 12.1012
1 26.1921 10.1575 12.1012
1 26.2142 10.9468 11.3013
1 25.3909 10.1744 11.3267
1 26.9858 10.9512 12.1012
1 27.7795 10.1575 12.1012
1 27.7543 10.9508 11.2936
1 26.9705 10.1598 11.2967
1 28.5732 10.9512 12.1012
1 29.3669 10.1575 12.1012
1 29.2938 10.94 11.2632
1 28.5168 10.1355 11.2904
1 1.53125e-09 9.36379 12.1012
1 0.793701 8.57009 12.1012
1 0.80646 9.37248 11.2985
1 0.0599176 8.57372 11.253
1 1.5874 9.36379 12.1012
1 2.3811 8.57009 12.1012
1 2.38492 9.34561 11.2947
1 1.60474 8.55641 11.3192
1 3.1748 9.36379 12.1012
1 3.9685 8.57009 12.1012
1 3.96906 9.38278 11.3037
1 3.19424 8.57855 11.3011
1 4.7622 9.36379 12.1012
1 5.5559 8.57009 12.1012
1 5.5281 9.37078 11.2949
1 4.75992 8.59942 11.3108
1 6.3496 9.36379 12.1012
1 7.1433 8.57009 12.1012
1 7.13745 9.40012 11.2939
1 6.35087 8.58649 11.2992
1 7.93701 9.36379 12.1012
1 8.73071 8.57009 12.1012
1 8.73451 9.35208 11.2853
1 7.93087 8.58825 11.2839
1 9.52441 9.36379 12.1012
1 10.3181 8.57009 12.1012
1 10.3359 9.3756 11.2928
1 9.52136 8.55625 11.305
1 11.1118 9.36379 12.1012
1 11.9055 8.57009 12.1012
1 11.9166 9.36028 11.3225
1 11.1269 8.57545 11.3166
1 12.6992 9.36379 12.1012
1 13.4929 8.57009 12.1012
1 13.4854 9.35665 11.3052
1 12.7186 8.56396 11.3024
1 14.2866 9.36379 12.1012
1 15.0803 8.57009 12.1012
1 15.0835 9.35744 11.2994
1 14.2622 8.55952 11.2925
1 15.874 9.36379 12.1012
1 16.6677 8.57009 12.1012
1 16.6799 9.35151 11.3175
1 15.8612 8.56712 11.3257
1 17.4614 9.36379 12.1012
1 18.2551 8.57009 12.1012
1 18.2391 9.34606 11.3001
1 17.4534 8.54934 11.3328
1 19.0488 9.36379 12.1012
1 19.8425 8.57009 12.1012
1 19.8635 9.35512 11.296
1 19.0708 8.56627 11.3065
1 20.6362 9.36379 12.1012
1 21.4299 8.57009 12.1012
1 21.4334 9.36328 11.3112
1 20.6576 8.57774 11.2918
1 22.2236 9.36379 12.1012
1 23.0173 8.57009 12.1012
1 23.0308 9.36952 11.3176
1 22.2339 8.58285 11.2691
1 23.811 9.36379 12.1012
1 24.6047 8.57009 12.1012
1 24.5995 9.36612 11.2922
1 23.8367 8.59122 11.288
1 25.3984 9.36379 12.1012
1 26.1921 8.57009 12.1012
1 26.1909 9.37527 11.3045
1 25.3601 8.5896 11.3065
1 26.9858 9.36379 12.1012
1 27.7795 8.57009 12.1012
1 27.7548 9.35796 11.2937
1 26.9697 8.56131 11.3256
1 28.5732 9.36379 12.1012
1 29.3669 8.57009 12.1012
1 29.3258 9.36614 11.2614
1 28.5454 8.6071 11.2839
1 1.53125e-09 7.77639 12.1012
1 0.793701 6.98268 12.1012
1 0.8211 7.78062 11.3149
1 0.0630921 6.9834 11.2655
1 1.5874 7.77639 12.1012
1 2.3811 6.98268 12.1012
1 2.37834 7.78825 11.3166
1 1.61463 6.99317 11.3258
1 3.1748 7.77639 12.1012
1 3.9685 6.98268 12.1012
1 4.00326 7.80108 11.3148
1 3.20641 6.99182 11.2883
1 4.7622 7.77639 12.1012
1 5.5559 6.98268 12.1012
1 5.54493 7.79731 11.2965
1 4.76816 6.96656 11.2917
1 6.3496 7.77639 12.1012
1 7.1433 6.98268 12.1012
1 7.12957 7.77254 11.3104
1 6.32177 6.97222 11.2766
1 7.93701 7.77639 12.1012
1 8.73071 6.98268 12.1012
1 8.72617 7.74961 11.286
1 7.9453 6.98446 11.3067
1 9.52441 7.77639 12.1012
1 10.3181 6.98268 12.1012
1 10.3276 7.78753 11.3311
1 9.55866 6.96573 11.2994
1 11.1118 7.77639 12.1012
1 11.9055 6.98268 12.1012
1 11.8953 7.78364 11.2839
1 11.0969 6.98372 11.3179
1 12.6992 7.77639 12.1012
1 13.4929 6.98268 12.1012
1 13.4876 7.79717 11.2996
1 12.6726 7.00193 11.3214
1 14.2866 7.77639 12.1012
1 15.0803 6.98268 12.1012
1 15.093 7.78395 11.3128
1 14.2676 7.0255 11.2984
1 15.874 7.77639 12.1012
1 16.6677 6.98268 12.1012
1 16.6518 7.77619 11.3141
1 15.8628 6.96825 11.308
1 17.4614 7.77639 12.1012
1 18.2551 6.98268 12.1012
1 18.2299 7.78476 11.3198
1 17.4549 6.96918 11.2801
1 19.0488 7.77639 12.1012
1 19.8425 6.98268 12.1012
1 19.8587 7.76778 11.2856
1 19.0347 7.00817 11.3135
1 20.6362 7.77639 12.1012
1 21.4299 6.98268 12.1012
1 21.4497 7.79126 11.2892
1 20.6403 6.99611 11.301
1 22.2236 7.77639 12.1012
1 23.0173 6.98268 12.1012
1 23.0322 7.78451 11.306
1 22.2408 7.01663 11.3097
1 23.811 7.77639 12.1012
1 24.6047 6.98268 12.1012
1 24.5815 7.79149 11.2998
1 23.8076 7.01431 11.2905
1 25.3984 7.77639 12.1012
1 26.1921 6.98268 12.1012
1 26.1546 7.77781 11.3064
1 25.3674 6.95661 11.3055
1 26.9858 7.77639 12.1012
1 27.7795 6.98268 12.1012
1 27.7686 7.74034 11.2776
1 26.9847 6.98369 11.3069
1 28.5732 7.77639 12.1012
1 29.3669 6.98268 12.1012
1 29.3019 7.79695 11.2598
1 28.5592 6.96509 11.2816
1 1.53125e-09 6.18898 12.1012
1 0.793701 5.39528 12.1012
1 0.824899 6.18513 11.2753
1 0.0718979 5.39847 11.263
1 1.5874 6.18898 12.1012
1 2.3811 5.39528 12.1012
1 2.40456 6.18435 11.283
1 1.602 5.39361 11.2973
1 3.1748 6.18898 12.1012
1 3.9685 5.39528 12.1012
1 3.98056 6.17038 11.294
1 3.17611 5.37473 11.3149
1 4.7622 6.18898 12.1012
1 5.5559 5.39528 12.1012
1 5.57707 6.18221 11.2914
1 4.76441 5.39056 11.3179
1 6.3496 6.18898 12.1012
1 7.1433 5.39528 12.1012
1 7.12943 6.19797 11.293