9376
Atoms. Timestep: 4000000
1 30 3.55271e-15 13.5289
1 0.793701 29.2063 13.5289
1 0.839384 29.941 12.6878
1 0.0680778 29.1748 12.7229
1 1.5874 3.55271e-15 13.5289
1 2.3811 29.2063 13.5289
1 2.43677 29.9483 12.7052
1 1.59498 29.1897 12.754
1 3.1748 3.55271e-15 13.5289
1 3.9685 29.2063 13.5289
1 3.95904 29.9382 12.6971
1 3.18049 29.1985 12.7313
1 4.7622 3.55271e-15 13.5289
1 5.5559 29.2063 13.5289
1 5.55715 29.9349 12.7023
1 4.74299 29.207 12.6898
1 6.3496 3.55271e-15 13.5289
1 7.1433 29.2063 13.5289
1 7.15146 29.9531 12.6793
1 6.35095 29.154 12.7242
1 7.93701 3.55271e-15 13.5289
1 8.73071 29.2063 13.5289
1 8.71697 29.9144 12.6795
1 7.95624 29.1681 12.7455
1 9.52441 3.55271e-15 13.5289
1 10.3181 29.2063 13.5289
1 10.344 29.9075 12.6923
1 9.53365 29.1862 12.7202
1 11.1118 3.55271e-15 13.5289
1 11.9055 29.2063 13.5289
1 11.8714 29.93 12.7031
1 11.1022 29.1563 12.7535
1 12.6992 3.55271e-15 13.5289
1 13.4929 29.2063 13.5289
1 13.4919 29.9461 12.6824
1 12.6965 29.1856 12.7423
1 14.2866 3.55271e-15 13.5289
1 15.0803 29.2063 13.5289
1 15.076 29.9222 12.7275
1 14.2984 29.1858 12.7056
1 15.874 3.55271e-15 13.5289
1 16.6677 29.2063 13.5289
1 16.6336 29.9471 12.6793
1 15.8695 29.19 12.7629
1 17.4614 3.55271e-15 13.5289
1 18.2551 29.2063 13.5289
1 18.2611 29.927 12.6772
1 17.4494 29.1862 12.7163
1 19.0488 3.55271e-15 13.5289
1 19.8425 29.2063 13.5289
1 19.8238 29.9451 12.6885
1 19.0511 29.1591 12.7243
1 20.6362 3.55271e-15 13.5289
1 21.4299 29.2063 13.5289
1 21.4203 29.9228 12.718
1 20.6238 29.1833 12.7019
1 22.2236 3.55271e-15 13.5289
1 23.0173 29.2063 13.5289
1 22.9956 29.9375 12.7078
1 22.2163 29.1857 12.7225
1 23.811 3.55271e-15 13.5289
1 24.6047 29.2063 13.5289
1 24.6034 29.9228 12.6944
1 23.7941 29.1978 12.7252
1 25.3984 3.55271e-15 13.5289
1 26.1921 29.2063 13.5289
1 26.2003 29.939 12.702
1 25.4088 29.163 12.7154
1 26.9858 3.55271e-15 13.5289
1 27.7795 29.2063 13.5289
1 27.7796 29.921 12.7098
1 26.994 29.1756 12.7282
1 28.5732 3.55271e-15 13.5289
1 29.3669 29.2063 13.5289
1 29.3135 29.9398 12.686
1 28.5397 29.1497 12.7039
1 30 28.4126 13.5289
1 0.793701 27.6189 13.5289
1 0.801761 28.392 12.7716
1 0.0506664 27.6033 12.7438
1 1.5874 28.4126 13.5289
1 2.3811 27.6189 13.5289
1 2.39745 28.4143 12.7337
1 1.59202 27.6267 12.7475
1 3.1748 28.4126 13.5289
1 3.9685 27.6189 13.5289
1 3.95093 28.4171 12.7618
1 3.18361 27.6382 12.7447
1 4.7622 28.4126 13.5289
1 5.5559 27.6189 13.5289
1 5.55158 28.3994 12.7406
1 4.76782 27.6294 12.7546
1 6.3496 28.4126 13.5289
1 7.1433 27.6189 13.5289
1 7.13149 28.3937 12.7064
1 6.34207 27.6283 12.724
1 7.93701 28.4126 13.5289
1 8.73071 27.6189 13.5289
1 8.7484 28.3936 12.733
1 7.93732 27.6426 12.7402
1 9.52441 28.4126 13.5289
1 10.3181 27.6189 13.5289
1 10.3343 28.4173 12.7277
1 9.56447 27.6173 12.7361
1 11.1118 28.4126 13.5289
1 11.9055 27.6189 13.5289
1 11.9283 28.3988 12.7125
1 11.102 27.5999 12.7259
1 12.6992 28.4126 13.5289
1 13.4929 27.6189 13.5289
1 13.4902 28.3761 12.74
1 12.7097 27.6115 12.7127
1 14.2866 28.4126 13.5289
1 15.0803 27.6189 13.5289
1 15.0934 28.4028 12.7365
1 14.2866 27.5977 12.755
1 15.874 28.4126 13.5289
1 16.6677 27.6189 13.5289
1 16.6656 28.3847 12.7351
1 15.8766 27.6076 12.7542
1 17.4614 28.4126 13.5289
1 18.2551 27.6189 13.5289
1 18.2575 28.3857 12.7331
1 17.4504 27.5982 12.7216
1 19.0488 28.4126 13.5289
1 19.8425 27.6189 13.5289
1 19.847 28.3866 12.7616
1 19.0574 27.6194 12.732
1 20.6362 28.4126 13.5289
1 21.4299 27.6189 13.5289
1 21.4326 28.3952 12.7496
1 20.6222 27.6201 12.7495
1 22.2236 28.4126 13.5289
1 23.0173 27.6189 13.5289
1 23.01 28.4012 12.7421
1 22.2211 27.6129 12.7448
1 23.811 28.4126 13.5289
1 24.6047 27.6189 13.5289
1 24.5966 28.4018 12.712
1 23.7948 27.6035 12.7236
1 25.3984 28.4126 13.5289
1 26.1921 27.6189 13.5289
1 26.2066 28.36 12.7185
1 25.3871 27.5954 12.7203
1 26.9858 28.4126 13.5289
1 27.7795 27.6189 13.5289
1 27.7355 28.3771 12.7466
1 26.9889 27.5908 12.7221
1 28.5732 28.4126 13.5289
1 29.3669 27.6189 13.5289
1 29.3234 28.3821 12.7039
1 28.5205 27.6194 12.6969
1 30 26.8252 13.5289
1 0.793701 26.0315 13.5289
1 0.822264 26.8259 12.7448
1 0.058377 26.0394 12.7131
1 1.5874 26.8252 13.5289
1 2.3811 26.0315 13.5289
1 2.3885 26.7876 12.7621
1 1.58547 26.0144 12.7709
1 3.1748 26.8252 13.5289
1 3.9685 26.0315 13.5289
1 3.97036 26.8117 12.7281
1 3.18806 26.0163 12.7514
1 4.7622 26.8252 13.5289
1 5.5559 26.0315 13.5289
1 5.55421 26.8136 12.7311
1 4.75961 25.9957 12.7205
1 6.3496 26.8252 13.5289
1 7.1433 26.0315 13.5289
1 7.12053 26.828 12.7359
1 6.31839 26.0321 12.7356
1 7.93701 26.8252 13.5289
1 8.73071 26.0315 13.5289
1 8.73526 26.817 12.7615
1 7.92257 26.0257 12.743
1 9.52441 26.8252 13.5289
1 10.3181 26.0315 13.5289
1 10.3239 26.8378 12.7256
1 9.53368 26.0411 12.7346
1 11.1118 26.8252 13.5289
1 11.9055 26.0315 13.5289
1 11.9177 26.8141 12.7452
1 11.0842 26.0261 12.7185
1 12.6992 26.8252 13.5289
1 13.4929 26.0315 13.5289
1 13.4628 26.8327 12.7241
1 12.6884 26.033 12.7168
1 14.2866 26.8252 13.5289
1 15.0803 26.0315 13.5289
1 15.0634 26.8427 12.7683
1 14.2702 26.0422 12.7381
1 15.874 26.8252 13.5289
1 16.6677 26.0315 13.5289
1 16.642 26.8167 12.753
1 15.8578 26.0317 12.7438
1 17.4614 26.8252 13.5289
1 18.2551 26.0315 13.5289
1 18.2697 26.8094 12.7647
1 17.4391 26.0604 12.7601
1 19.0488 26.8252 13.5289
1 19.8425 26.0315 13.5289
1 19.8526 26.7981 12.7448
1 19.0446 26.0281 12.7439
1 20.6362 26.8252 13.5289
1 21.4299 26.0315 13.5289
1 21.4262 26.8098 12.7355
1 20.6172 26.0387 12.7571
1 22.2236 26.8252 13.5289
1 23.0173 26.0315 13.5289
1 23.0298 26.8223 12.7334
1 22.2526 26.0385 12.7203
1 23.811 26.8252 13.5289
1 24.6047 26.0315 13.5289
1 24.5892 26.8019 12.7342
1 23.8278 26.0341 12.7279
1 25.3984 26.8252 13.5289
1 26.1921 26.0315 13.5289
1 26.174 26.8488 12.6922
1 25.4015 26.0389 12.7241
1 26.9858 26.8252 13.5289
1 27.7795 26.0315 13.5289
1 27.7653 26.8222 12.7348
1 26.965 26.0374 12.7224
1 28.5732 26.8252 13.5289
1 29.3669 26.0315 13.5289
1 29.2921 26.821 12.7031
1 28.5624 26.02 12.7239
1 30 25.2378 13.5289
1 0.793701 24.4441 13.5289
1 0.817694 25.2368 12.735
1 0.081567 24.4409 12.6893
1 1.5874 25.2378 13.5289
1 2.3811 24.4441 13.5289
1 2.40856 25.2214 12.7496
1 1.59401 24.4461 12.7401
1 3.1748 25.2378 13.5289
1 3.9685 24.4441 13.5289
1 3.99124 25.2102 12.7384
1 3.17404 24.4261 12.7679
1 4.7622 25.2378 13.5289
1 5.5559 24.4441 13.5289
1 5.57777 25.2351 12.7342
1 4.78354 24.4529 12.7354
1 6.3496 25.2378 13.5289
1 7.1433 24.4441 13.5289
1 7.13513 25.2561 12.7346
1 6.37556 24.4383 12.7132
1 7.93701 25.2378 13.5289
1 8.73071 24.4441 13.5289
1 8.74696 25.2281 12.7462
1 7.94601 24.4487 12.7492
1 9.52441 25.2378 13.5289
1 10.3181 24.4441 13.5289
1 10.3202 25.2382 12.7446
1 9.52002 24.468 12.7527
1 11.1118 25.2378 13.5289
1 11.9055 24.4441 13.5289
1 11.9251 25.252 12.7026
1 11.1256 24.4473 12.7204
1 12.6992 25.2378 13.5289
1 13.4929 24.4441 13.5289
1 13.4883 25.2506 12.7357
1 12.6975 24.4463 12.7158
1 14.2866 25.2378 13.5289
1 15.0803 24.4441 13.5289
1 15.0716 25.2346 12.7525
1 14.2758 24.4548 12.7156
1 15.874 25.2378 13.5289
1 16.6677 24.4441 13.5289
1 16.6505 25.2479 12.7439
1 15.8683 24.4434 12.7455
1 17.4614 25.2378 13.5289
1 18.2551 24.4441 13.5289
1 18.2939 25.2463 12.7324
1 17.4634 24.4423 12.7494
1 19.0488 25.2378 13.5289
1 19.8425 24.4441 13.5289
1 19.8639 25.2087 12.7247
1 19.046 24.4427 12.7417
1 20.6362 25.2378 13.5289
1 21.4299 24.4441 13.5289
1 21.4366 25.2063 12.7439
1 20.6295 24.434 12.743
1 22.2236 25.2378 13.5289
1 23.0173 24.4441 13.5289
1 23.0208 25.2423 12.731
1 22.2161 24.4509 12.7373
1 23.811 25.2378 13.5289
1 24.6047 24.4441 13.5289
1 24.6146 25.2204 12.7221
1 23.8134 24.4588 12.7385
1 25.3984 25.2378 13.5289
1 26.1921 24.4441 13.5289
1 26.1823 25.2386 12.7301
1 25.391 24.4714 12.7241
1 26.9858 25.2378 13.5289
1 27.7795 24.4441 13.5289
1 27.7531 25.2285 12.7374
1 26.9845 24.435 12.7542
1 28.5732 25.2378 13.5289
1 29.3669 24.4441 13.5289
1 29.3049 25.21 12.7047
1 28.5549 24.4611 12.7241
1 30 23.6504 13.5289
1 0.793701 22.8567 13.5289
1 0.82677 23.6228 12.7472
1 0.0422113 22.8947 12.719
1 1.5874 23.6504 13.5289
1 2.3811 22.8567 13.5289
1 2.41085 23.6427 12.7354
1 1.60086 22.8714 12.7536
1 3.1748 23.6504 13.5289
1 3.9685 22.8567 13.5289
1 3.97765 23.6204 12.769
1 3.1677 22.8489 12.7507
1 4.7622 23.6504 13.5289
1 5.5559 22.8567 13.5289
1 5.5615 23.6425 12.7261
1 4.77683 22.8324 12.7212
1 6.3496 23.6504 13.5289
1 7.1433 22.8567 13.5289
1 7.16979 23.6671 12.7263
1 6.38212 22.8801 12.7207
1 7.93701 23.6504 13.5289
1 8.73071 22.8567 13.5289
1 8.71577 23.6651 12.7365
1 7.93865 22.8547 12.7441
1 9.52441 23.6504 13.5289
1 10.3181 22.8567 13.5289
1 10.3138 23.6548 12.7568
1 9.53129 22.8654 12.7597
1 11.1118 23.6504 13.5289
1 11.9055 22.8567 13.5289
1 11.8939 23.6501 12.7249
1 11.1085 22.8659 12.7413
1 12.6992 23.6504 13.5289
1 13.4929 22.8567 13.5289
1 13.4879 23.6245 12.7293
1 12.6985 22.8791 12.7055
1 14.2866 23.6504 13.5289
1 15.0803 22.8567 13.5289
1 15.0573 23.6627 12.747
1 14.3036 22.8603 12.7212
1 15.874 23.6504 13.5289
1 16.6677 22.8567 13.5289
1 16.6706 23.6278 12.7459
1 15.8787 22.8476 12.7181
1 17.4614 23.6504 13.5289
1 18.2551 22.8567 13.5289
1 18.2515 23.6247 12.7364
1 17.4738 22.8493 12.7351
1 19.0488 23.6504 13.5289
1 19.8425 22.8567 13.5289
1 19.8443 23.6436 12.7125
1 19.0685 22.8378 12.7702
1 20.6362 23.6504 13.5289
1 21.4299 22.8567 13.5289
1 21.4333 23.6256 12.7458
1 20.6235 22.8403 12.7159
1 22.2236 23.6504 13.5289
1 23.0173 22.8567 13.5289
1 23.0103 23.6528 12.7476
1 22.2146 22.8698 12.7497
1 23.811 23.6504 13.5289
1 24.6047 22.8567 13.5289
1 24.6237 23.6617 12.7511
1 23.8014 22.888 12.7445
1 25.3984 23.6504 13.5289
1 26.1921 22.8567 13.5289
1 26.196 23.6483 12.7447
1 25.4016 22.8537 12.7503
1 26.9858 23.6504 13.5289
1 27.7795 22.8567 13.5289
1 27.7751 23.671 12.7404
1 26.9879 22.8688 12.7323
1 28.5732 23.6504 13.5289
1 29.3669 22.8567 13.5289
1 29.2868 23.6434 12.7397
1 28.5238 22.8605 12.7125
1 30 22.063 13.5289
1 0.793701 21.2693 13.5289
1 0.8135 22.0837 12.7325
1 0.0849573 21.2608 12.7207
1 1.5874 22.063 13.5289
1 2.3811 21.2693 13.5289
1 2.36731 22.0523 12.7598
1 1.61266 21.2588 12.7427
1 3.1748 22.063 13.5289
1 3.9685 21.2693 13.5289
1 3.9792 22.0883 12.7514
1 3.185 21.2966 12.7272
1 4.7622 22.063 13.5289
1 5.5559 21.2693 13.5289
1 5.57174 22.0725 12.7127
1 4.76253 21.2989 12.7432
1 6.3496 22.063 13.5289
1 7.1433 21.2693 13.5289
1 7.15446 22.0249 12.7415
1 6.3552 21.2632 12.7309
1 7.93701 22.063 13.5289
1 8.73071 21.2693 13.5289
1 8.74402 22.076 12.745
1 7.93279 21.2429 12.7282
1 9.52441 22.063 13.5289
1 10.3181 21.2693 13.5289
1 10.3177 22.0452 12.7498
1 9.5127 21.2727 12.7249
1 11.1118 22.063 13.5289
1 11.9055 21.2693 13.5289
1 11.9134 22.0573 12.7308
1 11.1026 21.2618 12.7236
1 12.6992 22.063 13.5289
1 13.4929 21.2693 13.5289
1 13.4867 22.0643 12.7427
1 12.7067 21.2983 12.7273
1 14.2866 22.063 13.5289
1 15.0803 21.2693 13.5289
1 15.0678 22.0503 12.7283
1 14.2918 21.2518 12.7271
1 15.874 22.063 13.5289
1 16.6677 21.2693 13.5289
1 16.6763 22.0772 12.7214
1 15.8895 21.2575 12.6867
1 17.4614 22.063 13.5289
1 18.2551 21.2693 13.5289
1 18.2485 22.0633 12.7535
1 17.4631 21.2563 12.7429
1 19.0488 22.063 13.5289
1 19.8425 21.2693 13.5289
1 19.8461 22.0562 12.7266
1 19.0526 21.2672 12.714
1 20.6362 22.063 13.5289
1 21.4299 21.2693 13.5289
1 21.4183 22.1008 12.7277
1 20.6408 21.2753 12.7337
1 22.2236 22.063 13.5289
1 23.0173 21.2693 13.5289
1 23.0146 22.0717 12.7507
1 22.2119 21.2943 12.7559
1 23.811 22.063 13.5289
1 24.6047 21.2693 13.5289
1 24.6034 22.0544 12.7437
1 23.8089 21.2721 12.7586
1 25.3984 22.063 13.5289
1 26.1921 21.2693 13.5289
1 26.2013 22.0644 12.7271
1 25.3729 21.2882 12.7148
1 26.9858 22.063 13.5289
1 27.7795 21.2693 13.5289
1 27.7608 22.0403 12.7217
1 27.0127 21.2595 12.7502
1 28.5732 22.063 13.5289
1 29.3669 21.2693 13.5289
1 29.3141 22.0753 12.6624
1 28.5315 21.2715 12.7199
1 30 20.4756 13.5289
1 0.793701 19.6819 13.5289
1 0.837097 20.474 12.724
1 0.0820428 19.6669 12.7069
1 1.5874 20.4756 13.5289
1 2.3811 19.6819 13.5289
1 2.4403 20.493 12.744
1 1.60833 19.6872 12.7449
1 3.1748 20.4756 13.5289
1 3.9685 19.6819 13.5289
1 3.97479 20.4879 12.7463
1 3.19107 19.6713 12.7559
1 4.7622 20.4756 13.5289
1 5.5559 19.6819 13.5289
1 5.55386 20.491 12.7568
1 4.76734 19.6639 12.7422
1 6.3496 20.4756 13.5289
1 7.1433 19.6819 13.5289
1 7.1317 20.4546 12.75
1 6.35215 19.6845 12.7501
1 7.93701 20.4756 13.5289
1 8.73071 19.6819 13.5289
1 8.73978 20.4782 12.7337
1 7.95179 19.6897 12.7096
1 9.52441 20.4756 13.5289
1 10.3181 19.6819 13.5289
1 10.296 20.479 12.7396
1 9.52872 19.7068 12.7323
1 11.1118 20.4756 13.5289
1 11.9055 19.6819 13.5289
1 11.9195 20.4868 12.7147
1 11.1046 19.7081 12.7361
1 12.6992 20.4756 13.5289
1 13.4929 19.6819 13.5289
1 13.4984 20.4931 12.7682
1 12.6877 19.6919 12.7267
1 14.2866 20.4756 13.5289
1 15.0803 19.6819 13.5289
1 15.0729 20.4747 12.7331
1 14.2826 19.6858 12.7191
1 15.874 20.4756 13.5289
1 16.6677 19.6819 13.5289
1 16.6751 20.4832 12.7343
1 15.8709 19.6929 12.7479
1 17.4614 20.4756 13.5289
1 18.2551 19.6819 13.5289
1 18.2742 20.4684 12.7378
1 17.4485 19.6818 12.7135
1 19.0488 20.4756 13.5289
1 19.8425 19.6819 13.5289
1 19.8582 20.4613 12.7113
1 19.0761 19.6888 12.7268
1 20.6362 20.4756 13.5289
1 21.4299 19.6819 13.5289
1 21.4452 20.4674 12.7505
1 20.6197 19.6861 12.73
1 22.2236 20.4756 13.5289
1 23.0173 19.6819 13.5289
1 23.0093 20.4791 12.7308
1 22.2249 19.6727 12.7132
1 23.811 20.4756 13.5289
1 24.6047 19.6819 13.5289
1 24.5982 20.4762 12.7472
1 23.7759 19.6892 12.7479
1 25.3984 20.4756 13.5289
1 26.1921 19.6819 13.5289
1 26.1972 20.4822 12.7553
1 25.413 19.6899 12.7472
1 26.9858 20.4756 13.5289
1 27.7795 19.6819 13.5289
1 27.7615 20.4382 12.7325
1 26.9781 19.6811 12.7342
1 28.5732 20.4756 13.5289
1 29.3669 19.6819 13.5289
1 29.2939 20.4549 12.697
1 28.5456 19.6669 12.753
1 30 18.8882 13.5289
1 0.793701 18.0945 13.5289
1 0.854988 18.8897 12.7364
1 0.0695397 18.0882 12.6916
1 1.5874 18.8882 13.5289
1 2.3811 18.0945 13.5289
1 2.42016 18.8708 12.7517
1 1.60643 18.0863 12.715
1 3.1748 18.8882 13.5289
1 3.9685 18.0945 13.5289
1 3.96188 18.898 12.7415
1 3.17476 18.0678 12.7453
1 4.7622 18.8882 13.5289
1 5.5559 18.0945 13.5289
1 5.57079 18.8723 12.7321
1 4.758 18.1113 12.7606
1 6.3496 18.8882 13.5289
1 7.1433 18.0945 13.5289
1 7.14783 18.8928 12.7174
1 6.3754 18.0851 12.7154
1 7.93701 18.8882 13.5289
1 8.73071 18.0945 13.5289
1 8.76521 18.8986 12.7297
1 7.94189 18.1245 12.7341
1 9.52441 18.8882 13.5289
1 10.3181 18.0945 13.5289
1 10.3032 18.8976 12.7446
1 9.53718 18.115 12.7319
1 11.1118 18.8882 13.5289
1 11.9055 18.0945 13.5289
1 11.9171 18.8919 12.7538
1 11.0904 18.1077 12.7604
1 12.6992 18.8882 13.5289
1 13.4929 18.0945 13.5289
1 13.4976 18.8796 12.7289
1 12.714 18.0877 12.7231
1 14.2866 18.8882 13.5289
1 15.0803 18.0945 13.5289
1 15.0556 18.9114 12.7257
1 14.2952 18.0917 12.7322
1 15.874 18.8882 13.5289
1 16.6677 18.0945 13.5289
1 16.6794 18.877 12.7448
1 15.8634 18.096 12.7655
1 17.4614 18.8882 13.5289
1 18.2551 18.0945 13.5289
1 18.2223 18.8883 12.7201
1 17.434 18.0883 12.7508
1 19.0488 18.8882 13.5289
1 19.8425 18.0945 13.5289
1 19.8292 18.8836 12.735
1 19.0601 18.0885 12.7037
1 20.6362 18.8882 13.5289
1 21.4299 18.0945 13.5289
1 21.4264 18.8776 12.7354
1 20.6535 18.1002 12.7212
1 22.2236 18.8882 13.5289
1 23.0173 18.0945 13.5289
1 22.9951 18.912 12.7422
1 22.2164 18.0849 12.7238
1 23.811 18.8882 13.5289
1 24.6047 18.0945 13.5289
1 24.6002 18.9011 12.7248
1 23.7964 18.107 12.7279
1 25.3984 18.8882 13.5289
1 26.1921 18.0945 13.5289
1 26.1916 18.8698 12.7145
1 25.3967 18.1101 12.7218
1 26.9858 18.8882 13.5289
1 27.7795 18.0945 13.5289
1 27.7521 18.8851 12.7742
1 26.9763 18.0847 12.7249
1 28.5732 18.8882 13.5289
1 29.3669 18.0945 13.5289
1 29.303 18.8678 12.7267
1 28.5366 18.0955 12.7193
1 30 17.3008 13.5289
1 0.793701 16.5071 13.5289
1 0.820132 17.2865 12.7414
1 0.0650871 16.4959 12.678
1 1.5874 17.3008 13.5289
1 2.3811 16.5071 13.5289
1 2.37581 17.2926 12.7527
1 1.5834 16.4873 12.7317
1 3.1748 17.3008 13.5289
1 3.9685 16.5071 13.5289
1 4.01018 17.3137 12.7295
1 3.20301 16.5336 12.7362
1 4.7622 17.3008 13.5289
1 5.5559 16.5071 13.5289
1 5.59159 17.3033 12.7394
1 4.76263 16.5091 12.7362
1 6.3496 17.3008 13.5289
1 7.1433 16.5071 13.5289
1 7.14994 17.3027 12.7543
1 6.34617 16.5043 12.73
1 7.93701 17.3008 13.5289
1 8.73071 16.5071 13.5289
1 8.73927 17.295 12.7379
1 7.97983 16.5192 12.7452
1 9.52441 17.3008 13.5289
1 10.3181 16.5071 13.5289
1 10.3013 17.3245 12.7402
1 9.52874 16.5199 12.7325
1 11.1118 17.3008 13.5289
1 11.9055 16.5071 13.5289
1 11.8682 17.2819 12.745
1 11.1148 16.4974 12.7492
1 12.6992 17.3008 13.5289
1 13.4929 16.5071 13.5289
1 13.5177 17.2639 12.7286
1 12.6737 16.5076 12.7194
1 14.2866 17.3008 13.5289
1 15.0803 16.5071 13.5289
1 15.0857 17.2974 12.7445
1 14.2878 16.4883 12.7368
1 15.874 17.3008 13.5289
1 16.6677 16.5071 13.5289
1 16.6702 17.2939 12.7553
1 15.8771 16.4974 12.7469
1 17.4614 17.3008 13.5289
1 18.2551 16.5071 13.5289
1 18.233 17.2999 12.7545
1 17.4368 16.5061 12.7549
1 19.0488 17.3008 13.5289
1 19.8425 16.5071 13.5289
1 19.8376 17.2865 12.7572
1 19.0529 16.5101 12.7254
1 20.6362 17.3008 13.5289
1 21.4299 16.5071 13.5289
1 21.3987 17.2933 12.7445
1 20.5969 16.4859 12.6959
1 22.2236 17.3008 13.5289
1 23.0173 16.5071 13.5289
1 23.0192 17.2935 12.7219
1 22.2536 16.5189 12.7467
1 23.811 17.3008 13.5289
1 24.6047 16.5071 13.5289
1 24.6122 17.31 12.7255
1 23.8064 16.5057 12.7498
1 25.3984 17.3008 13.5289
1 26.1921 16.5071 13.5289
1 26.1842 17.307 12.7229
1 25.4033 16.5037 12.7269
1 26.9858 17.3008 13.5289
1 27.7795 16.5071 13.5289
1 27.7621 17.3093 12.7399
1 26.9675 16.4837 12.7164
1 28.5732 17.3008 13.5289
1 29.3669 16.5071 13.5289
1 29.2986 17.3221 12.691
1 28.548 16.538 12.7242
1 30 15.7134 13.5289
1 0.793701 14.9197 13.5289
1 0.816646 15.7196 12.7211
1 0.0780369 14.9176 12.72
1 1.5874 15.7134 13.5289
1 2.3811 14.9197 13.5289
1 2.387 15.6997 12.7734
1 1.57797 14.8963 12.7555
1 3.1748 15.7134 13.5289
1 3.9685 14.9197 13.5289
1 3.98659 15.6964 12.7219
1 3.18996 14.9217 12.7481
1 4.7622 15.7134 13.5289
1 5.5559 14.9197 13.5289
1 5.56124 15.7259 12.749
1 4.75176 14.9484 12.7295
1 6.3496 15.7134 13.5289
1 7.1433 14.9197 13.5289
1 7.16811 15.7337 12.7351
1 6.33185 14.9265 12.7412
1 7.93701 15.7134 13.5289
1 8.73071 14.9197 13.5289
1 8.7237 15.71 12.7216
1 7.97585 14.931 12.7387
1 9.52441 15.7134 13.5289
1 10.3181 14.9197 13.5289
1 10.2948 15.7027 12.7589
1 9.51871 14.918 12.7589
1 11.1118 15.7134 13.5289
1 11.9055 14.9197 13.5289
1 11.9139 15.7246 12.7512
1 11.1049 14.8894 12.7526
1 12.6992 15.7134 13.5289
1 13.4929 14.9197 13.5289
1 13.4945 15.7008 12.7489
1 12.698 14.92 12.7468
1 14.2866 15.7134 13.5289
1 15.0803 14.9197 13.5289
1 15.0902 15.6975 12.7453
1 14.3244 14.9082 12.7217
1 15.874 15.7134 13.5289
1 16.6677 14.9197 13.5289
1 16.6632 15.6897 12.7382
1 15.8671 14.9156 12.7524
1 17.4614 15.7134 13.5289
1 18.2551 14.9197 13.5289
1 18.242 15.7193 12.7171
1 17.4817 14.9393 12.7445
1 19.0488 15.7134 13.5289
1 19.8425 14.9197 13.5289
1 19.8009 15.698 12.7326
1 19.0516 14.9426 12.7306
1 20.6362 15.7134 13.5289
1 21.4299 14.9197 13.5289
1 21.4146 15.7317 12.743
1 20.6022 14.9228 12.7618
1 22.2236 15.7134 13.5289
1 23.0173 14.9197 13.5289
1 22.9979 15.7097 12.7522
1 22.2146 14.9287 12.7552
1 23.811 15.7134 13.5289
1 24.6047 14.9197 13.5289
1 24.6068 15.7204 12.723
1 23.8045 14.9171 12.7386
1 25.3984 15.7134 13.5289
1 26.1921 14.9197 13.5289
1 26.1633 15.7247 12.704
1 25.383 14.9093 12.7354
1 26.9858 15.7134 13.5289
1 27.7795 14.9197 13.5289
1 27.761 15.7179 12.7468
1 26.9801 14.8903 12.7748
1 28.5732 15.7134 13.5289
1 29.3669 14.9197 13.5289
1 29.3189 15.7376 12.7051
1 28.5627 14.9338 12.7427
1 30 14.126 13.5289
1 0.793701 13.3323 13.5289
1 0.810411 14.1308 12.7439
1 0.0191239 13.3434 12.6944
1 1.5874 14.126 13.5289
1 2.3811 13.3323 13.5289
1 2.43097 14.1426 12.7351
1 1.62138 13.3639 12.7593
1 3.1748 14.126 13.5289
1 3.9685 13.3323 13.5289
1 3.99408 14.1458 12.7079
1 3.18592 13.3354 12.7469
1 4.7622 14.126 13.5289
1 5.5559 13.3323 13.5289
1 5.55702 14.1284 12.7227
1 4.78802 13.3724 12.7328
1 6.3496 14.126 13.5289
1 7.1433 13.3323 13.5289
1 7.13843 14.129 12.7744
1 6.35514 13.3389 12.7416
1 7.93701 14.126 13.5289
1 8.73071 13.3323 13.5289
1 8.7377 14.1286 12.7418
1 7.96067 13.3262 12.7671
1 9.52441 14.126 13.5289
1 10.3181 13.3323 13.5289
1 10.3071 14.1492 12.7387
1 9.5466 13.3484 12.7191
1 11.1118 14.126 13.5289
1 11.9055 13.3323 13.5289
1 11.8934 14.1301 12.7616
1 11.1144 13.3456 12.7204
1 12.6992 14.126 13.5289
1 13.4929 13.3323 13.5289
1 13.4862 14.1292 12.7357
1 12.6995 13.3326 12.7367
1 14.2866 14.126 13.5289
1 15.0803 13.3323 13.5289
1 15.0582 14.1099 12.7443
1 14.2577 13.3151 12.7303
1 15.874 14.126 13.5289
1 16.6677 13.3323 13.5289
1 16.6819 14.1274 12.7356
1 15.8866 13.3253 12.7191
1 17.4614 14.126 13.5289
1 18.2551 13.3323 13.5289
1 18.2655 14.1275 12.7208
1 17.444 13.3298 12.6908
1 19.0488 14.126 13.5289
1 19.8425 13.3323 13.5289
1 19.8312 14.1389 12.7335
1 19.0519 13.3166 12.715
1 20.6362 14.126 13.5289
1 21.4299 13.3323 13.5289
1 21.4251 14.1219 12.727
1 20.6157 13.3376 12.741
1 22.2236 14.126 13.5289
1 23.0173 13.3323 13.5289
1 23.022 14.1287 12.7405
1 22.1878 13.3309 12.7275
1 23.811 14.126 13.5289
1 24.6047 13.3323 13.5289
1 24.5693 14.0991 12.7233
1 23.804 13.3467 12.7419
1 25.3984 14.126 13.5289
1 26.1921 13.3323 13.5289
1 26.1858 14.1196 12.7322
1 25.3948 13.3232 12.7544
1 26.9858 14.126 13.5289
1 27.7795 13.3323 13.5289
1 27.7546 14.1243 12.7503
1 26.9741 13.3478 12.7454
1 28.5732 14.126 13.5289
1 29.3669 13.3323 13.5289
1 29.2882 14.1159 12.6741
1 28.5339 13.3337 12.7162
1 30 12.5386 13.5289
1 0.793701 11.7449 13.5289
1 0.829101 12.5605 12.7549
1 0.042223 11.7407 12.722
1 1.5874 12.5386 13.5289
1 2.3811 11.7449 13.5289
1 2.39414 12.549 12.7411
1 1.60185 11.7426 12.7364
1 3.1748 12.5386 13.5289
1 3.9685 11.7449 13.5289
1 3.98693 12.5542 12.7296
1 3.19196 11.7276 12.7424
1 4.7622 12.5386 13.5289
1 5.5559 11.7449 13.5289
1 5.53924 12.5453 12.7495
1 4.74807 11.7355 12.76
1 6.3496 12.5386 13.5289
1 7.1433 11.7449 13.5289
1 7.12669 12.5411 12.7384
1 6.36091 11.7405 12.7439
1 7.93701 12.5386 13.5289
1 8.73071 11.7449 13.5289
1 8.7491 12.5428 12.6998
1 7.93862 11.7463 12.7513
1 9.52441 12.5386 13.5289
1 10.3181 11.7449 13.5289
1 10.3316 12.5364 12.7312
1 9.54586 11.7693 12.7237
1 11.1118 12.5386 13.5289
1 11.9055 11.7449 13.5289
1 11.8942 12.5431 12.722
1 11.1115 11.745 12.7355
1 12.6992 12.5386 13.5289
1 13.4929 11.7449 13.5289
1 13.4943 12.5214 12.7302
1 12.7137 11.7386 12.74
1 14.2866 12.5386 13.5289
1 15.0803 11.7449 13.5289
1 15.0762 12.5401 12.7183
1 14.2719 11.758 12.7379
1 15.874 12.5386 13.5289
1 16.6677 11.7449 13.5289
1 16.6684 12.5473 12.7403
1 15.8938 11.7399 12.7305
1 17.4614 12.5386 13.5289
1 18.2551 11.7449 13.5289
1 18.2415 12.5627 12.7234
1 17.4723 11.758 12.7237
1 19.0488 12.5386 13.5289
1 19.8425 11.7449 13.5289
1 19.8319 12.5297 12.7282
1 19.0508 11.7346 12.7488
1 20.6362 12.5386 13.5289
1 21.4299 11.7449 13.5289
1 21.433 12.5442 12.7293
1 20.6335 11.7379 12.7387
1 22.2236 12.5386 13.5289
1 23.0173 11.7449 13.5289
1 22.997 12.5466 12.7647
1 22.2446 11.7435 12.7189
1 23.811 12.5386 13.5289
1 24.6047 11.7449 13.5289
1 24.5818 12.5377 12.7466
1 23.802 11.7334 12.7316
1 25.3984 12.5386 13.5289
1 26.1921 11.7449 13.5289
1 26.1876 12.5616 12.7144
1 25.3866 11.7436 12.7498
1 26.9858 12.5386 13.5289
1 27.7795 11.7449 13.5289
1 27.7426 12.5456 12.7534
1 26.9654 11.7423 12.7403
1 28.5732 12.5386 13.5289
1 29.3669 11.7449 13.5289
1 29.2934 12.5024 12.6935
1 28.5552 11.7432 12.7158
1 30 10.9512 13.5289
1 0.793701 10.1575 13.5289
1 0.814108 10.9394 12.7312
1 0.0717065 10.1594 12.7042
1 1.5874 10.9512 13.5289
1 2.3811 10.1575 13.5289
1 2.37976 10.9418 12.7349
1 1.60496 10.163 12.7807
1 3.1748 10.9512 13.5289
1 3.9685 10.1575 13.5289
1 3.95817 10.9367 12.74
1 3.16893 10.1767 12.7163
1 4.7622 10.9512 13.5289
1 5.5559 10.1575 13.5289
1 5.54556 10.9592 12.7262
1 4.77351 10.1745 12.7244
1 6.3496 10.9512 13.5289
1 7.1433 10.1575 13.5289
1 7.15549 10.933 12.742
1 6.35128 10.1573 12.7053
1 7.93701 10.9512 13.5289
1 8.73071 10.1575 13.5289
1 8.77558 10.9462 12.7383
1 7.96903 10.1382 12.731
1 9.52441 10.9512 13.5289
1 10.3181 10.1575 13.5289
1 10.3121 10.9253 12.7444
1 9.55159 10.1494 12.7085
1 11.1118 10.9512 13.5289
1 11.9055 10.1575 13.5289
1 11.8997 10.9534 12.7213
1 11.1113 10.1651 12.7302
1 12.6992 10.9512 13.5289
1 13.4929 10.1575 13.5289
1 13.5071 10.9436 12.751
1 12.7143 10.1549 12.7405
1 14.2866 10.9512 13.5289
1 15.0803 10.1575 13.5289
1 15.068 10.9466 12.7224
1 14.2936 10.1332 12.7134
1 15.874 10.9512 13.5289
1 16.6677 10.1575 13.5289
1 16.6603 10.9555 12.7196
1 15.8737 10.1531 12.739
1 17.4614 10.9512 13.5289
1 18.2551 10.1575 13.5289
1 18.2683 10.9422 12.7477
1 17.4316 10.1567 12.7387
1 19.0488 10.9512 13.5289
1 19.8425 10.1575 13.5289
1 19.8573 10.9422 12.7285
1 19.0752 10.1243 12.7331
1 20.6362 10.9512 13.5289
1 21.4299 10.1575 13.5289
1 21.4175 10.9611 12.7329
1 20.6258 10.1823 12.7073
1 22.2236 10.9512 13.5289
1 23.0173 10.1575 13.5289
1 22.9959 10.9524 12.7261
1 22.1977 10.1534 12.7332
1 23.811 10.9512 13.5289
1 24.6047 10.1575 13.5289
1 24.5742 10.9205 12.7401
1 23.784 10.1534 12.7144
1 25.3984 10.9512 13.5289
1 26.1921 10.1575 13.5289
1 26.1775 10.9429 12.7452
1 25.4029 10.1465 12.726
1 26.9858 10.9512 13.5289
1 27.7795 10.1575 13.5289
1 27.7444 10.9286 12.7158
1 26.9835 10.1488 12.7397
1 28.5732 10.9512 13.5289
1 29.3669 10.1575 13.5289
1 29.3217 10.9602 12.7128
1 28.5723 10.1661 12.7126
1 30 9.36379 13.5289
1 0.793701 8.57009 13.5289
1 0.832167 9.37068 12.7419
1 0.062269 8.56637 12.7161
1 1.5874 9.36379 13.5289
1 2.3811 8.57009 13.5289
1 2.4052 9.40092 12.7276
1 1.60124 8.58176 12.722
1 3.1748 9.36379 13.5289
1 3.9685 8.57009 13.5289
1 3.9615 9.35451 12.7484
1 3.17102 8.59177 12.7266
1 4.7622 9.36379 13.5289
1 5.5559 8.57009 13.5289
1 5.55497 9.38392 12.7427
1 4.75301 8.58054 12.7219
1 6.3496 9.36379 13.5289
1 7.1433 8.57009 13.5289
1 7.14978 9.35953 12.7311
1 6.35698 8.57959 12.7398
1 7.93701 9.36379 13.5289
1 8.73071 8.57009 13.5289
1 8.75485 9.36866 12.7679
1 7.95832 8.58582 12.7422
1 9.52441 9.36379 13.5289
1 10.3181 8.57009 13.5289
1 10.3012 9.33003 12.7479
1 9.51702 8.57815 12.7286
1 11.1118 9.36379 13.5289
1 11.9055 8.57009 13.5289
1 11.9017 9.35451 12.7532
1 11.1147 8.55286 12.7462
1 12.6992 9.36379 13.5289
1 13.4929 8.57009 13.5289
1 13.4923 9.35586 12.7356
1 12.6953 8.56888 12.7499
1 14.2866 9.36379 13.5289
1 15.0803 8.57009 13.5289
1 15.0807 9.36509 12.7356
1 14.2747 8.56555 12.7259
1 15.874 9.36379 13.5289
1 16.6677 8.57009 13.5289
1 16.6523 9.37893 12.7491
1 15.8691 8.58187 12.7328
1 17.4614 9.36379 13.5289
1 18.2551 8.57009 13.5289
1 18.2316 9.35194 12.7315
1 17.4692 8.55966 12.7359
1 19.0488 9.36379 13.5289
1 19.8425 8.57009 13.5289
1 19.8105 9.37728 12.725
1 19.0214 8.54298 12.7163
1 20.6362 9.36379 13.5289
1 21.4299 8.57009 13.5289
1 21.4125 9.35392 12.7392
1 20.6073 8.55782 12.7459
1 22.2236 9.36379 13.5289
1 23.0173 8.57009 13.5289
1 23.0048 9.35457 12.7182
1 22.2113 8.55067 12.7523
1 23.811 9.36379 13.5289
1 24.6047 8.57009 13.5289
1 24.5893 9.36133 12.7368
1 23.808 8.55661 12.7386
1 25.3984 9.36379 13.5289
1 26.1921 8.57009 13.5289
1 26.1857 9.38078 12.7319
1 25.3901 8.58649 12.765
1 26.9858 9.36379 13.5289
1 27.7795 8.57009 13.5289
1 27.781 9.35224 12.7456
1 26.9949 8.56471 12.7361
1 28.5732 9.36379 13.5289
1 29.3669 8.57009 13.5289
1 29.2994 9.35868 12.6698
1 28.5683 8.56615 12.7073
1 30 7.77639 13.5289
1 0.793701 6.98268 13.5289
1 0.828073 7.81681 12.7286
1 0.093636 6.99131 12.693
1 1.5874 7.77639 13.5289
1 2.3811 6.98268 13.5289
1 2.41245 7.77731 12.7407
1 1.58732 6.99424 12.756
1 3.1748 7.77639 13.5289
1 3.9685 6.98268 13.5289
1 3.94379 7.77098 12.7223
1 3.17993 6.99038 12.7449
1 4.7622 7.77639 13.5289
1 5.5559 6.98268 13.5289
1 5.55789 7.79244 12.7147
1 4.76792 7.00397 12.7372
1 6.3496 7.77639 13.5289
1 7.1433 6.98268 13.5289
1 7.18408 7.78869 12.7306
1 6.35059 6.99502 12.7564
1 7.93701 7.77639 13.5289
1 8.73071 6.98268 13.5289
1 8.7503 7.7918 12.7379
1 7.91861 7.00224 12.7252
1 9.52441 7.77639 13.5289
1 10.3181 6.98268 13.5289
1 10.3069 7.77044 12.7594
1 9.54383 6.97339 12.7345
1 11.1118 7.77639 13.5289
1 11.9055 6.98268 13.5289
1 11.9215 7.7375 12.713
1 11.1099 6.98877 12.7122
1 12.6992 7.77639 13.5289
1 13.4929 6.98268 13.5289
1 13.5004 7.77567 12.7499
1 12.7039 6.98611 12.7353
1 14.2866 7.77639 13.5289
1 15.0803 6.98268 13.5289
1 15.0779 7.79733 12.7215
1 14.2839 7.00916 12.7416
1 15.874 7.77639 13.5289
1 16.6677 6.98268 13.5289
1 16.6788 7.79352 12.7194
1 15.8662 6.98723 12.7734
1 17.4614 7.77639 13.5289
1 18.2551 6.98268 13.5289
1 18.237 7.76517 12.7274
1 17.4364 6.95216 12.7333
1 19.0488 7.77639 13.5289
1 19.8425 6.98268 13.5289
1 19.8419 7.78076 12.7427
1 19.0286 6.98747 12.7374
1 20.6362 7.77639 13.5289
1 21.4299 6.98268 13.5289
1 21.4256 7.78594 12.7189
1 20.6237 6.98645 12.7164
1 22.2236 7.77639 13.5289
1 23.0173 6.98268 13.5289
1 23.024 7.76548 12.768
1 22.1965 6.98002 12.7371
1 23.811 7.77639 13.5289
1 24.6047 6.98268 13.5289
1 24.6206 7.79489 12.7462
1 23.8242 6.97088 12.7672
1 25.3984 7.77639 13.5289
1 26.1921 6.98268 13.5289
1 26.191 7.7938 12.7548
1 25.3875 6.97462 12.7417
1 26.9858 7.77639 13.5289
1 27.7795 6.98268 13.5289
1 27.7651 7.77498 12.7363
1 26.9939 6.98439 12.7276
1 28.5732 7.77639 13.5289
1 29.3669 6.98268 13.5289
1 29.326 7.76758 12.6785
1 28.5585 6.99851 12.6975
1 30 6.18898 13.5289
1 0.793701 5.39528 13.5289
1 0.840695 6.19025 12.7068
1 0.0598526 5.40501 12.6825
1 1.5874 6.18898 13.5289
1 2.3811 5.39528 13.5289
1 2.38486 6.20527 12.7457
1 1.58321 5.38777 12.7528
1 3.1748 6.18898 13.5289
1 3.9685 5.39528 13.5289
1 4.00097 6.20065 12.717
1 3.20203 5.42219 12.7371
1 4.7622 6.18898 13.5289
1 5.5559 5.39528 13.5289
1 5.55625 6.17771 12.7298
1 4.78653 5.38452 12.7421
1 6.3496 6.18898 13.5289
1 7.1433 5.39528 13.5289
1 7.16849 6.1831 12.7336
1 6.37435 5.37881 12.7468
1 7.93701 6.18898 13.5289
1 8.73071 5.39528 13.5289
1 8.71989 6.20093 12.7392
1 7.96915 5.39812 12.7136
1 9.52441 6.18898 13.5289